alanine dipeptide in vacuum in water
 1591
    1ACE   HH31    1   0.767   1.707   0.946 -0.3007 -1.1363  1.9016
    1ACE    CH3    2   0.727   1.652   0.861 -0.1582  0.2801  0.8905
    1ACE   HH32    3   0.664   1.564   0.879  1.5547 -0.6490  2.6685
    1ACE   HH33    4   0.796   1.626   0.780 -1.2437 -1.1196  0.3670
    1ACE      C    5   0.650   1.761   0.795  0.1467 -0.3199 -0.8056
    1ACE      O    6   0.678   1.802   0.681 -0.2645  0.6448  0.3469
    2ALA      N    7   0.540   1.805   0.872 -0.3535 -0.2746  0.4032
    2ALA      H    8   0.522   1.752   0.957  0.4526 -0.5862  0.3871
    2ALA     CA    9   0.450   1.906   0.816 -0.9049  0.4145 -0.0796
    2ALA     HA   10   0.374   1.859   0.753 -3.2371  0.9441  2.1692
    2ALA     CB   11   0.371   1.950   0.939 -0.6123 -0.8792  0.0934
    2ALA    HB1   12   0.302   1.871   0.969 -2.6406 -0.2458 -2.5233
    2ALA    HB2   13   0.442   1.971   1.018  1.8201 -1.0211 -1.9142
    2ALA    HB3   14   0.306   2.033   0.913 -0.6208 -0.4334  1.4791
    2ALA      C   15   0.522   2.024   0.747 -0.0372  0.3438 -0.2785
    2ALA      O   16   0.629   2.075   0.785  0.1787  0.4025 -0.1040
    3NME      N   17   0.468   2.079   0.637  0.4361 -0.0535  0.0926
    3NME      H   18   0.379   2.038   0.610 -0.0613  0.5611  0.7591
    3NME    CH3   19   0.533   2.176   0.552 -0.3671  0.2965  0.4337
    3NME   HH31   20   0.619   2.130   0.503  0.2702  1.0819  0.7798
    3NME   HH32   21   0.562   2.260   0.615  1.0760  0.6499 -0.6308
    3NME   HH33   22   0.458   2.200   0.477  1.3038  0.1154 -1.3964
    4SOL     OW   23   2.399   1.772   1.585  0.4296 -0.6260 -0.1663
    4SOL    HW1   24   2.407   1.761   1.680  2.9746  1.6299  0.0057
    4SOL    HW2   25   2.475   1.726   1.549  1.6582  1.6614 -0.6983
    5SOL     OW   26   3.791   1.630   1.620 -0.4453 -0.1815 -0.5140
    5SOL    HW1   27   3.741   1.552   1.644 -0.1628 -0.0659  0.4824
    5SOL    HW2   28   3.865   1.596   1.569  0.4337 -0.7301  1.0652
    6SOL     OW   29   2.761   1.446   0.080  0.0965 -0.3567  0.0226
    6SOL    HW1   30   2.768   1.541   0.079  3.9699 -0.4488 -1.9346
    6SOL    HW2   31   2.685   1.426   0.026 -1.2615  1.5551  1.1242
    7SOL     OW   32   2.531   1.273   1.622  0.3429 -0.5727  0.2997
    7SOL    HW1   33   2.622   1.259   1.598  0.4319  0.3714  0.0254
    7SOL    HW2   34   2.524   1.240   1.711  1.3537  0.7767  0.9048
    8SOL     OW   35   2.434   1.266   1.355 -0.6742  0.4203 -0.0412
    8SOL    HW1   36   2.425   1.182   1.311 -1.9756  0.2426  0.5348
    8SOL    HW2   37   2.417   1.247   1.447 -2.9760  1.6007 -0.1454
    9SOL     OW   38   3.140   1.014   1.572 -0.0672  0.0545  0.2902
    9SOL    HW1   39   3.182   1.093   1.538  0.2380 -0.1531  0.1742
    9SOL    HW2   40   3.203   0.944   1.553 -1.6307 -0.7710 -2.5716
   10SOL     OW   41   1.662   1.063   1.387  0.0127 -0.4754  0.4996
   10SOL    HW1   42   1.642   0.993   1.325  1.3206 -2.0012  1.7064
   10SOL    HW2   43   1.590   1.125   1.377  1.3205  0.7165 -4.3184
   11SOL     OW   44   0.989   0.596   0.724  0.7653 -0.1385  0.1652
   11SOL    HW1   45   0.949   0.575   0.640  0.8139  0.5011 -0.0217
   11SOL    HW2   46   0.914   0.619   0.781  0.8604  1.4948 -0.3091
   12SOL     OW   47   2.181   0.499   1.388 -0.2408 -0.6192  0.3004
   12SOL    HW1   48   2.099   0.503   1.339  0.0324 -0.9930 -0.1999
   12SOL    HW2   49   2.208   0.590   1.398  0.2125 -0.5665 -1.1450
   13SOL     OW   50   0.701   0.946   0.097 -0.3437 -0.1199  0.0176
   13SOL    HW1   51   0.661   0.875   0.148 -1.0658  1.6176  2.0164
   13SOL    HW2   52   0.759   0.990   0.159 -1.1794  2.0237 -0.6159
   14SOL     OW   53   2.004   1.045   0.468  0.1319 -0.1103  0.1395
   14SOL    HW1   54   1.964   0.987   0.404  0.5456  0.1360 -0.3448
   14SOL    HW2   55   2.097   1.026   0.463  0.3894  1.2427 -0.7082
   15SOL     OW   56   2.763   0.891   0.607 -0.6512 -0.4368  0.3465
   15SOL    HW1   57   2.854   0.914   0.622 -0.7481  1.2938 -1.3351
   15SOL    HW2   58   2.761   0.795   0.610  1.1196 -0.4855  0.8404
   16SOL     OW   59   1.848   0.642   0.922 -0.0955  0.5131 -0.2064
   16SOL    HW1   60   1.851   0.659   0.828 -0.7597  2.4090  0.0861
   16SOL    HW2   61   1.795   0.562   0.929 -1.1830  1.0968 -1.3672
   17SOL     OW   62   1.889   1.880   0.484  0.6715 -0.1301  0.1925
   17SOL    HW1   63   1.948   1.922   0.546 -0.4660  0.4507  0.9103
   17SOL    HW2   64   1.898   1.786   0.502  1.3072 -0.0428  0.3383
   18SOL     OW   65   2.781   2.485   1.545  0.0073 -0.2110 -0.7493
   18SOL    HW1   66   2.828   2.561   1.579  0.0292 -0.6613  0.2595
   18SOL    HW2   67   2.703   2.478   1.601 -1.4385  0.6658 -2.5279
   19SOL     OW   68   1.064   1.833   0.929  0.5126  0.3241  0.4127
   19SOL    HW1   69   1.072   1.877   1.014 -0.1139  0.5341  0.3631
   19SOL    HW2   70   1.079   1.902   0.864 -0.4517  0.4683  0.3351
   20SOL     OW   71   2.399   1.564   0.388  0.6703  0.5955 -0.2326
   20SOL    HW1   72   2.485   1.604   0.393  1.1847 -0.0919 -2.5940
   20SOL    HW2   73   2.349   1.620   0.328 -0.4080  0.7389  0.7577
   21SOL     OW   74   3.209   2.707   0.918  0.3397 -0.3429 -0.2530
   21SOL    HW1   75   3.189   2.659   0.998  0.4046  0.8597  0.5109
   21SOL    HW2   76   3.135   2.766   0.906  0.1489 -0.7812 -1.3019
   22SOL     OW   77   1.530   1.945   0.758  0.1940  0.0535  0.5098
   22SOL    HW1   78   1.539   1.902   0.673 -1.2406 -2.1222  1.3708
   22SOL    HW2   79   1.583   1.892   0.817 -0.7623  0.0738  1.4107
   23SOL     OW   80   2.429   0.277   0.601  0.5174  0.8332 -0.2211
   23SOL    HW1   81   2.507   0.224   0.618 -0.4530 -1.3392 -2.1037
   23SOL    HW2   82   2.421   0.332   0.679  2.1543 -1.0870  1.4370
   24SOL     OW   83   1.679   0.712   1.568 -0.0163 -0.3163 -0.0271
   24SOL    HW1   84   1.715   0.799   1.587  0.7049 -0.9069  1.3898
   24SOL    HW2   85   1.755   0.654   1.568 -0.6019 -1.0912 -0.1353
   25SOL     OW   86   2.382   0.021   0.894 -0.0190 -0.4037  0.0367
   25SOL    HW1   87   2.410   0.026   0.985 -0.6757  0.5714  0.1959
   25SOL    HW2   88   2.440  -0.045   0.855  0.0570 -1.0670  1.2234
   26SOL     OW   89   2.616   1.742   0.402 -0.2091 -0.3218  0.1100
   26SOL    HW1   90   2.685   1.764   0.466  0.9750 -0.1429 -1.1798
   26SOL    HW2   91   2.618   1.814   0.339 -0.8275 -0.8745 -0.5534
   27SOL     OW   92   1.818   1.990   1.516 -0.8122  0.4066 -0.7328
   27SOL    HW1   93   1.906   2.004   1.480 -0.5646  2.8300  0.6104
   27SOL    HW2   94   1.826   1.912   1.570  0.6299  0.8037 -0.3350
   28SOL     OW   95   1.922   1.132   1.523  0.3201 -0.1328 -0.4324
   28SOL    HW1   96   1.832   1.135   1.491  0.0586  0.8974  0.3516
   28SOL    HW2   97   1.939   1.221   1.554  1.5653 -0.3550 -0.4427
   29SOL     OW   98   2.048   2.617   0.569 -0.0703  0.4048  0.2380
   29SOL    HW1   99   2.102   2.601   0.646  0.3298  0.8164  0.0482
   29SOL    HW2  100   1.997   2.695   0.591 -1.0798 -0.3471  0.6673
   30SOL     OW  101   3.034   1.547   1.170 -0.6087 -0.0050  0.8538
   30SOL    HW1  102   2.952   1.562   1.216 -2.0809 -1.8901 -1.0101
   30SOL    HW2  103   3.010   1.541   1.078  1.7754  0.3160  0.1236
   31SOL     OW  104   4.010   1.404   1.740 -0.5544 -0.3179  0.0886
   31SOL    HW1  105   4.056   1.325   1.768 -2.9190 -1.8017  0.0746
   31SOL    HW2  106   3.991   1.451   1.821  0.0887 -0.1916  0.1731
   32SOL     OW  107   1.315   0.193   1.629  0.1678  0.2818 -0.3285
   32SOL    HW1  108   1.289   0.115   1.679  1.4614 -0.9383 -1.4734
   32SOL    HW2  109   1.398   0.219   1.667  1.4280 -0.9647 -2.0689
   33SOL     OW  110   2.094   1.097   0.899  0.1926 -0.6914  0.1493
   33SOL    HW1  111   2.056   1.050   0.973 -1.9773  1.4643  0.5536
   33SOL    HW2  112   2.147   1.166   0.939 -1.0960  0.5671 -0.1998
   34SOL     OW  113   3.681   2.104   1.749  0.5935 -0.7656 -0.3946
   34SOL    HW1  114   3.662   2.197   1.761 -1.0142 -1.0983 -0.0823
   34SOL    HW2  115   3.674   2.090   1.655 -0.4897 -0.7998 -0.3275
   35SOL     OW  116   2.754   1.070   1.408 -0.2029 -0.0119  0.2318
   35SOL    HW1  117   2.674   1.037   1.451  0.9617 -3.6624 -0.1193
   35SOL    HW2  118   2.740   1.053   1.315  0.0505  1.7161 -0.1709
   36SOL     OW  119   0.813   2.651   0.993  0.2341  0.2727 -0.5531
   36SOL    HW1  120   0.840   2.730   0.948  0.0382 -0.4662 -2.0168
   36SOL    HW2  121   0.865   2.581   0.953  0.5814 -0.3276  0.8717
   37SOL     OW  122   2.813   2.207   0.621  0.5557 -0.6308 -0.0744
   37SOL    HW1  123   2.879   2.243   0.561  0.8777 -2.8193 -1.1440
   37SOL    HW2  124   2.857   2.200   0.705  0.8618  0.2325 -0.1497
   38SOL     OW  125   0.430   1.543   0.345 -0.5189  0.0001 -0.4546
   38SOL    HW1  126   0.370   1.494   0.290  2.0207 -3.3031 -0.5896
   38SOL    HW2  127   0.374   1.586   0.410 -3.0421 -2.5428 -0.7752
   39SOL     OW  128   1.042   1.186   0.214  0.0143 -0.4459  0.1873
   39SOL    HW1  129   1.074   1.261   0.264 -1.7966 -0.5685  1.6085
   39SOL    HW2  130   0.959   1.216   0.176 -0.3806 -1.5042  0.1873
   40SOL     OW  131   2.771   1.515   0.374 -0.0262  0.2733  0.1956
   40SOL    HW1  132   2.731   1.602   0.378  1.7422  1.1133  0.3422
   40SOL    HW2  133   2.771   1.493   0.281 -0.2041  0.5686  0.1256
   41SOL     OW  134   1.303   2.031   0.862  0.3570  0.4348 -0.1912
   41SOL    HW1  135   1.277   1.995   0.947 -2.5708  0.4975 -0.9484
   41SOL    HW2  136   1.398   2.019   0.859  0.7182  1.1945  3.3995
   42SOL     OW  137   0.956   2.683   1.237  0.2978  0.0071 -0.2201
   42SOL    HW1  138   1.048   2.712   1.241 -0.3187  1.9769  0.9187
   42SOL    HW2  139   0.936   2.683   1.143  0.0873  4.5300 -0.3861
   43SOL     OW  140   1.362   0.011   0.122  0.8664  0.7762 -0.0161
   43SOL    HW1  141   1.330   0.098   0.098  1.4130  0.8828 -0.3786
   43SOL    HW2  142   1.315  -0.048   0.064 -1.3087  0.5662  1.8237
   44SOL     OW  143   1.322   2.760   0.813  0.5548  0.0419  0.1869
   44SOL    HW1  144   1.278   2.749   0.729  0.0723  0.0986  0.4287
   44SOL    HW2  145   1.379   2.835   0.801 -0.8148  1.1652  0.4325
   45SOL     OW  146   2.828   1.717   1.563 -0.4814 -0.2162 -0.1260
   45SOL    HW1  147   2.902   1.772   1.585 -0.1400 -0.6938 -0.0711
   45SOL    HW2  148   2.782   1.765   1.494  0.2374 -0.2215 -0.6192
   46SOL     OW  149   1.892   0.199   0.510 -0.3489 -0.5160  0.6902
   46SOL    HW1  150   1.847   0.155   0.438 -1.4773  0.3768  0.8106
   46SOL    HW2  151   1.939   0.271   0.469 -0.0188 -0.7170  0.7118
   47SOL     OW  152   2.958   1.611   0.731  0.1397  0.1279  0.0335
   47SOL    HW1  153   2.906   1.570   0.800 -0.9053  0.3312 -0.5979
   47SOL    HW2  154   3.047   1.610   0.764 -0.2027 -0.5975  0.9922
   48SOL     OW  155   1.209   0.324   0.364  0.0795  0.2980  0.4319
   48SOL    HW1  156   1.242   0.376   0.291  0.5924 -1.0247 -0.3127
   48SOL    HW2  157   1.285   0.276   0.397 -0.6110 -1.0141  0.2084
   49SOL     OW  158   2.056   0.640   1.762  0.0908 -0.1501  0.3805
   49SOL    HW1  159   2.139   0.682   1.788 -0.0034 -0.4428  1.1920
   49SOL    HW2  160   1.988   0.700   1.793 -0.0103 -0.0308 -0.0655
   50SOL     OW  161   0.668   0.574   0.394  0.4274 -0.4722 -0.3060
   50SOL    HW1  162   0.590   0.630   0.391  0.4634 -0.3713  0.4495
   50SOL    HW2  163   0.642   0.495   0.347  0.9051  0.7880 -2.8912
   51SOL     OW  164   3.970   2.181   1.914 -0.6851  0.3693 -0.4138
   51SOL    HW1  165   3.922   2.107   1.876  0.6194 -1.0929  0.6262
   51SOL    HW2  166   3.984   2.156   2.005 -0.6432  2.1647  0.1135
   52SOL     OW  167   3.326   2.406   1.386  0.2414 -0.5679  0.0305
   52SOL    HW1  168   3.397   2.446   1.336  0.5665 -1.1761  0.0050
   52SOL    HW2  169   3.332   2.312   1.368  0.9450 -0.9344  1.9011
   53SOL     OW  170   3.025   0.948   0.692  0.1820  0.2149  0.0314
   53SOL    HW1  171   2.963   0.954   0.764  0.3747 -0.8257  0.2974
   53SOL    HW2  172   3.062   1.036   0.684  0.2886  0.3004  1.3274
   54SOL     OW  173   2.483   2.311   1.012 -0.2434 -0.6295 -0.0437
   54SOL    HW1  174   2.517   2.293   0.924 -0.3343  0.9904 -0.4447
   54SOL    HW2  175   2.559   2.342   1.061 -0.6377  0.6856 -0.2404
   55SOL     OW  176   1.608   2.082   1.390 -0.3644  0.2607  0.1183
   55SOL    HW1  177   1.582   2.157   1.443 -2.7855 -0.4023  0.0169
   55SOL    HW2  178   1.698   2.064   1.416 -0.9322  0.9339  2.8886
   56SOL     OW  179   2.423   2.517   0.225 -0.2729  0.1372 -0.3704
   56SOL    HW1  180   2.503   2.570   0.225  0.5219 -1.0316 -0.6551
   56SOL    HW2  181   2.446   2.440   0.173 -1.4721 -0.3994 -0.1226
   57SOL     OW  182   1.820   0.073   0.754 -0.2168  0.7094  0.7715
   57SOL    HW1  183   1.869   0.136   0.700 -1.4415  0.8240 -0.2296
   57SOL    HW2  184   1.821   0.112   0.842  1.0867  0.9268  0.6822
   58SOL     OW  185   1.570   0.881   1.206 -0.4487 -0.1517  0.2268
   58SOL    HW1  186   1.488   0.841   1.177 -0.3616 -0.4286  0.3623
   58SOL    HW2  187   1.625   0.884   1.128 -0.9914  1.0679 -0.1389
   59SOL     OW  188   2.301   0.704   1.537  0.5269  0.3903  0.4017
   59SOL    HW1  189   2.284   0.772   1.472  1.1924  0.5747  0.4135
   59SOL    HW2  190   2.306   0.751   1.620 -0.5140  0.1337  0.6289
   60SOL     OW  191   3.081   1.149   0.487  0.4612 -0.0316 -0.3364
   60SOL    HW1  192   3.057   1.092   0.414  0.5999  1.3260 -1.4702
   60SOL    HW2  193   2.998   1.182   0.520  0.4130 -0.4582 -0.0232
   61SOL     OW  194   3.067   2.367   0.571 -0.1064 -0.1076 -0.1942
   61SOL    HW1  195   3.036   2.457   0.565 -0.8009 -0.4249 -2.0861
   61SOL    HW2  196   3.094   2.357   0.662 -3.6340  0.8460  1.1288
   62SOL     OW  197   2.557   1.626   1.102 -0.0818 -0.3611  0.6495
   62SOL    HW1  198   2.646   1.662   1.093 -0.7458  1.0149 -0.9940
   62SOL    HW2  199   2.564   1.537   1.069  0.4081  0.2278 -0.9342
   63SOL     OW  200   3.415   2.427   1.708 -0.1043  0.2199  0.2401
   63SOL    HW1  201   3.399   2.368   1.634 -0.9459 -2.0653  2.1136
   63SOL    HW2  202   3.499   2.398   1.744 -0.2514  0.5307  0.8455
   64SOL     OW  203   0.825   0.154   0.329  0.2066  0.0694 -0.7575
   64SOL    HW1  204   0.791   0.065   0.315  0.7330 -0.0031 -1.6247
   64SOL    HW2  205   0.893   0.143   0.395  0.2955 -0.1793 -0.8875
   65SOL     OW  206   0.466   0.656   0.003 -0.5519  0.2358  0.0064
   65SOL    HW1  207   0.420   0.685   0.082  0.8677 -0.1073  0.9868
   65SOL    HW2  208   0.514   0.578   0.030 -0.5194 -0.2462 -1.3684
   66SOL     OW  209   2.252   1.248   0.418 -0.1954 -0.2170 -0.0924
   66SOL    HW1  210   2.276   1.324   0.365  0.8339 -0.7367 -0.3781
   66SOL    HW2  211   2.164   1.269   0.450 -0.2556  0.7306 -0.8352
   67SOL     OW  212   1.650   1.459   1.152  0.2196 -0.1263  0.5076
   67SOL    HW1  213   1.592   1.383   1.153 -1.7901  1.2775 -1.2828
   67SOL    HW2  214   1.595   1.532   1.182  1.5001  1.0039  0.2229
   68SOL     OW  215   2.631   0.631   0.137 -0.4312  0.3984  0.2574
   68SOL    HW1  216   2.621   0.691   0.210 -0.1828 -0.6238  1.1560
   68SOL    HW2  217   2.687   0.561   0.170 -1.8548 -1.0718 -0.2721
   69SOL     OW  218   3.292   1.641   1.105 -0.0861  0.2358 -1.1171
   69SOL    HW1  219   3.321   1.701   1.174  2.5295  0.7056 -2.4750
   69SOL    HW2  220   3.230   1.582   1.148 -0.4447  2.0203  0.9977
   70SOL     OW  221   1.383   0.885   0.066 -0.0208  0.7455  0.1325
   70SOL    HW1  222   1.470   0.903   0.100 -0.4674  1.1011  1.1220
   70SOL    HW2  223   1.368   0.954   0.001  0.3017  0.8704  0.1884
   71SOL     OW  224   2.998   0.504   1.210  0.0135  0.6212 -0.6695
   71SOL    HW1  225   3.069   0.555   1.170 -0.5114  1.1853 -0.9109
   71SOL    HW2  226   2.925   0.566   1.216  0.0202  0.4988  1.0212
   72SOL     OW  227   0.675   1.890   0.423  0.3727 -0.0037 -0.2088
   72SOL    HW1  228   0.675   1.864   0.515  0.6565  1.6134  0.2825
   72SOL    HW2  229   0.748   1.953   0.416 -1.2039  1.8459 -0.9153
   73SOL     OW  230   1.403   1.676   0.951 -0.1433 -0.2950 -0.8647
   73SOL    HW1  231   1.364   1.746   1.003  1.7382 -0.6945  1.2107
   73SOL    HW2  232   1.479   1.716   0.909 -1.2567 -0.1582 -2.9055
   74SOL     OW  233   2.562   2.716   0.532 -0.0290 -0.0666  0.1131
   74SOL    HW1  234   2.581   2.799   0.488 -0.1615  0.0790  0.3338
   74SOL    HW2  235   2.627   2.655   0.495  0.7500  0.3811  0.7193
   75SOL     OW  236   3.124   1.784   1.386  0.0140 -0.5516  0.3288
   75SOL    HW1  237   3.218   1.791   1.366 -0.2074  0.3421 -0.4752
   75SOL    HW2  238   3.089   1.870   1.363 -1.3912 -1.5445 -1.4400
   76SOL     OW  239   3.483   0.355   1.233 -0.0016  0.3686 -0.0437
   76SOL    HW1  240   3.474   0.431   1.176  0.1895 -0.1610 -0.8076
   76SOL    HW2  241   3.559   0.308   1.198 -0.9122 -0.8817 -0.4533
   77SOL     OW  242   0.833   0.838   0.838  0.4903  0.1153 -0.1662
   77SOL    HW1  243   0.873   0.839   0.925  0.0344  0.9692  0.0500
   77SOL    HW2  244   0.869   0.915   0.794 -1.3508  1.2972  0.2678
   78SOL     OW  245   1.977   2.334   0.781  0.1002 -0.2723  0.0162
   78SOL    HW1  246   1.959   2.365   0.869  2.8079  1.4201  0.0655
   78SOL    HW2  247   2.043   2.266   0.792  1.7463  1.1183 -0.7065
   79SOL     OW  248   3.324   1.074   1.132  0.0578  0.2309  0.0848
   79SOL    HW1  249   3.408   1.083   1.087 -0.6647  2.1407 -0.9890
   79SOL    HW2  250   3.297   1.164   1.152 -0.5766 -0.4389  2.6815
   80SOL     OW  251   1.449   0.691   0.538  0.0880  0.0374  0.5170
   80SOL    HW1  252   1.448   0.740   0.456 -0.2256 -0.5002  0.1890
   80SOL    HW2  253   1.356   0.684   0.563  0.1880  0.3025  0.9861
   81SOL     OW  254   0.196   1.654   0.151  0.0782  0.4118 -0.0466
   81SOL    HW1  255   0.253   1.605   0.092  0.5822  0.6978  0.2040
   81SOL    HW2  256   0.172   1.733   0.103  1.1877  1.0704  0.4396
   82SOL     OW  257   2.499   0.060   0.024  0.5880 -0.5216 -0.3653
   82SOL    HW1  258   2.511   0.155   0.022 -1.5334 -0.1808  0.5812
   82SOL    HW2  259   2.422   0.046   0.080  0.3669 -2.7485 -1.1046
   83SOL     OW  260   2.585   1.936   0.187  0.7878  0.1047  0.2009
   83SOL    HW1  261   2.521   1.974   0.128  1.7871  0.3627 -0.7407
   83SOL    HW2  262   2.628   2.011   0.228  0.8490 -0.0577  0.4417
   84SOL     OW  263   1.064   0.759   1.333 -0.2976 -0.0193  0.6186
   84SOL    HW1  264   1.085   0.773   1.425 -0.9582  1.1170  0.6223
   84SOL    HW2  265   1.028   0.671   1.329  1.3834 -0.7502  1.1350
   85SOL     OW  266   2.738   0.969   0.322  0.2493 -0.1047  0.4875
   85SOL    HW1  267   2.656   0.920   0.321  0.6922 -0.8484 -0.0839
   85SOL    HW2  268   2.766   0.966   0.414 -0.6464  0.6671  0.8058
   86SOL     OW  269   3.163   1.328   1.807  0.5632 -0.0453 -0.0523
   86SOL    HW1  270   3.209   1.273   1.743  0.2458 -1.3045  0.7753
   86SOL    HW2  271   3.228   1.392   1.835  1.2895 -0.7095 -0.1894
   87SOL     OW  272   3.312   2.521   0.720  0.3840  0.3527  0.4277
   87SOL    HW1  273   3.292   2.588   0.785 -0.7094  1.1126 -0.6401
   87SOL    HW2  274   3.277   2.440   0.756 -1.4461  1.0051  0.2300
   88SOL     OW  275   1.919   1.080   0.134  0.2683 -0.0777 -0.5723
   88SOL    HW1  276   1.880   0.996   0.109 -1.5088  0.4652  0.2199
   88SOL    HW2  277   1.846   1.132   0.168  1.5898  1.2435  0.4180
   89SOL     OW  278   1.766   0.121   1.911 -0.2358 -0.1676  0.3393
   89SOL    HW1  279   1.738   0.111   1.819 -1.4332 -0.1226  0.6794
   89SOL    HW2  280   1.722   0.049   1.957  0.8624 -0.5668  0.7863
   90SOL     OW  281   2.937   0.047   0.951 -0.2360  0.6402  0.7908
   90SOL    HW1  282   2.853   0.001   0.950  1.1276 -2.1300 -0.8818
   90SOL    HW2  283   2.957   0.058   1.044 -2.8051  2.3131  1.2550
   91SOL     OW  284   1.332   1.023   1.142  0.1249 -0.3377 -0.0773
   91SOL    HW1  285   1.312   0.939   1.100  0.6413 -0.2066 -0.6052
   91SOL    HW2  286   1.261   1.082   1.112  1.0842  0.0573 -1.7277
   92SOL     OW  287   0.870   0.643  -0.013  0.2122 -0.2908  0.0532
   92SOL    HW1  288   0.861   0.677   0.076  0.1602 -1.0027  0.3284
   92SOL    HW2  289   0.895   0.552  -0.001 -0.5889 -0.6169 -0.6570
   93SOL     OW  290   3.058   2.269   1.100 -0.3273  0.2260 -0.0424
   93SOL    HW1  291   3.016   2.349   1.131 -0.7222 -0.0053  0.0265
   93SOL    HW2  292   3.025   2.201   1.158  1.6662  0.3177  1.3148
   94SOL     OW  293   2.519   0.779   0.336  0.2258 -0.0084  0.6804
   94SOL    HW1  294   2.507   0.725   0.414 -2.2293 -2.4969 -1.1851
   94SOL    HW2  295   2.430   0.795   0.305  1.1129 -0.0854 -2.1606
   95SOL     OW  296   3.094   0.137   1.839  0.3116 -0.1201  0.7612
   95SOL    HW1  297   3.026   0.194   1.874 -0.6020 -0.0126 -1.1078
   95SOL    HW2  298   3.174   0.190   1.841  0.0246  0.2939  1.4875
   96SOL     OW  299   2.794   1.396   1.200  0.7290 -0.5754 -0.1112
   96SOL    HW1  300   2.815   1.359   1.285 -0.5335 -0.6865  0.1726
   96SOL    HW2  301   2.706   1.363   1.180  0.3519  0.7042 -0.7156
   97SOL     OW  302   3.168   1.552   1.507  0.4093 -0.0218 -0.8819
   97SOL    HW1  303   3.156   1.490   1.435  0.9857 -0.5694 -0.5191
   97SOL    HW2  304   3.137   1.635   1.473 -0.2340 -0.4794 -1.4346
   98SOL     OW  305   3.671   2.584   1.585 -0.3074 -0.2429 -0.3083
   98SOL    HW1  306   3.688   2.530   1.508 -0.8894 -0.7106 -0.1178
   98SOL    HW2  307   3.633   2.664   1.549  1.8708  0.6783 -0.7078
   99SOL     OW  308   2.894   0.166   0.394 -0.2291 -0.1922 -0.2532
   99SOL    HW1  309   2.946   0.086   0.388 -1.2774 -0.9844  0.7245
   99SOL    HW2  310   2.956   0.234   0.422  0.3784 -1.0035  0.4162
  100SOL     OW  311   1.583   2.751   1.348 -0.3268  0.0285 -0.2404
  100SOL    HW1  312   1.587   2.715   1.259 -0.5411  0.3813 -0.3929
  100SOL    HW2  313   1.552   2.678   1.402  1.3193 -0.6761 -0.1859
  101SOL     OW  314   2.279   1.934   0.840  0.1588 -0.1058  0.0537
  101SOL    HW1  315   2.321   1.888   0.913  0.9886 -0.0323 -0.3674
  101SOL    HW2  316   2.262   2.022   0.873 -1.5664 -0.7106  0.9154
  102SOL     OW  317   1.355   0.891   0.350 -0.6826  0.3565  0.2758
  102SOL    HW1  318   1.267   0.856   0.365 -1.0302  0.8926 -0.4891
  102SOL    HW2  319   1.382   0.852   0.267  0.2829 -0.7201  1.0507
  103SOL     OW  320   0.866   0.770   0.226 -0.2288 -0.4706  0.1729
  103SOL    HW1  321   0.842   0.705   0.293 -1.1421  0.1411  0.4650
  103SOL    HW2  322   0.886   0.849   0.276  1.0184 -0.5602 -0.1722
  104SOL     OW  323   2.303   2.450   1.871 -0.1051  0.1598 -0.3068
  104SOL    HW1  324   2.244   2.415   1.805 -1.5867  0.6447  0.6833
  104SOL    HW2  325   2.247   2.464   1.948  1.1672  1.2710  0.4745
  105SOL     OW  326   1.880   2.223   1.742  0.1000  0.0622  0.8810
  105SOL    HW1  327   1.831   2.193   1.666  1.3279  0.1810  0.0231
  105SOL    HW2  328   1.875   2.150   1.804 -2.8274  0.8065  1.6832
  106SOL     OW  329   1.613   1.388   1.955  0.2452  0.9512  0.3170
  106SOL    HW1  330   1.538   1.403   2.013 -0.2477 -1.7920  0.5064
  106SOL    HW2  331   1.576   1.344   1.879  1.4895  0.6979 -0.1641
  107SOL     OW  332   3.189   1.325   1.207  0.0595 -0.2694  0.3689
  107SOL    HW1  333   3.142   1.406   1.188  2.0113  0.6079 -1.1605
  107SOL    HW2  334   3.131   1.275   1.265 -2.0471  1.3413 -0.2521
  108SOL     OW  335   2.874   2.051   1.596 -0.8303  0.1680 -0.0245
  108SOL    HW1  336   2.785   2.081   1.618 -0.8366  0.5773 -0.5819
  108SOL    HW2  337   2.893   1.983   1.660 -1.8229 -0.4183 -0.3381
  109SOL     OW  338   2.006   1.367   0.468  0.5530  0.1054  0.1221
  109SOL    HW1  339   2.001   1.461   0.487  0.9742  0.3197 -0.7721
  109SOL    HW2  340   1.918   1.334   0.486 -0.7062  1.3646 -2.9994
  110SOL     OW  341   2.118   0.415   0.593  0.2796  0.2682 -0.1090
  110SOL    HW1  342   2.140   0.505   0.570 -1.6350  0.9436  0.4949
  110SOL    HW2  343   2.105   0.417   0.688 -0.2460 -0.5357 -0.1485
  111SOL     OW  344   2.688   0.019   1.345  0.3650  0.3750  1.0011
  111SOL    HW1  345   2.691   0.088   1.412 -0.1141  0.6284  0.7664
  111SOL    HW2  346   2.775  -0.020   1.347  0.1528 -0.1045  2.2823
  112SOL     OW  347   1.717   0.944   0.622  0.0805 -1.1612 -0.8808
  112SOL    HW1  348   1.646   0.984   0.572 -0.2604  1.0282  1.1955
  112SOL    HW2  349   1.773   1.017   0.647  1.8686 -2.5661 -0.5359
  113SOL     OW  350   1.555   2.645   1.085  0.5229  0.4317  0.7455
  113SOL    HW1  351   1.563   2.557   1.123 -0.3664 -0.4799 -1.0577
  113SOL    HW2  352   1.625   2.648   1.019 -0.6626  0.3042 -0.5597
  114SOL     OW  353   0.311   2.199   0.232 -0.1824  0.0701 -0.0091
  114SOL    HW1  354   0.374   2.131   0.255 -0.5883 -0.3909 -0.2472
  114SOL    HW2  355   0.229   2.152   0.219 -0.1903  0.4340 -1.4299
  115SOL     OW  356   0.969   0.438   0.143 -0.0638  0.0520 -0.3693
  115SOL    HW1  357   0.961   0.510   0.205 -4.3865 -2.2242  2.2385
  115SOL    HW2  358   1.038   0.382   0.179  0.4032  0.8094 -0.0739
  116SOL     OW  359   0.924   0.303   0.830  0.3417  0.1251 -0.5044
  116SOL    HW1  360   0.943   0.292   0.923 -0.4615 -1.3946 -0.5009
  116SOL    HW2  361   0.946   0.395   0.813 -2.6628  1.5020  1.9755
  117SOL     OW  362   2.644   1.176   0.123 -0.4493  0.7548  0.1469
  117SOL    HW1  363   2.671   1.130   0.203  2.1645  0.2248 -0.9275
  117SOL    HW2  364   2.677   1.266   0.135 -1.2815  1.0493  0.2413
  118SOL     OW  365   2.162   2.089   0.135 -0.6556  0.1735  0.1869
  118SOL    HW1  366   2.172   2.180   0.163  0.7450  0.3389 -0.7184
  118SOL    HW2  367   2.200   2.037   0.205 -0.6196  0.3432  0.2924
  119SOL     OW  368   1.803   0.617   0.439  0.2845  0.2376  0.5074
  119SOL    HW1  369   1.731   0.574   0.485 -0.4963  1.6726  0.6818
  119SOL    HW2  370   1.833   0.553   0.375 -1.4998 -0.2041  0.0868
  120SOL     OW  371   2.075   1.903   1.774  0.1015  0.5764  0.0903
  120SOL    HW1  372   2.170   1.901   1.765  0.0580 -0.2878 -0.2626
  120SOL    HW2  373   2.058   1.877   1.864  0.1230 -1.8638 -0.5433
  121SOL     OW  374   1.096   1.452   0.234 -0.4498 -0.4583  1.0066
  121SOL    HW1  375   1.175   1.505   0.224  0.8237 -2.4932 -0.7383
  121SOL    HW2  376   1.036   1.484   0.166  0.7352 -1.8485 -0.7721
  122SOL     OW  377   1.312   2.779   1.803 -0.2522 -0.0496 -0.4868
  122SOL    HW1  378   1.238   2.765   1.744 -1.4143  1.1794  0.6233
  122SOL    HW2  379   1.346   2.691   1.820 -2.4599 -0.8415  0.2031
  123SOL     OW  380   2.402   2.088   0.473 -0.1680 -0.0908  0.1193
  123SOL    HW1  381   2.356   2.162   0.513 -1.0360 -0.8895  0.6431
  123SOL    HW2  382   2.477   2.128   0.428 -0.7606  1.1278  0.1649
  124SOL     OW  383   3.177   2.576   1.565  0.0373  0.0320 -0.3589
  124SOL    HW1  384   3.245   2.515   1.538 -1.6594 -2.9470  1.5584
  124SOL    HW2  385   3.202   2.659   1.524  4.3079 -1.0544 -0.4576
  125SOL     OW  386   1.177   2.008   0.326  0.2130 -0.1959 -0.2464
  125SOL    HW1  387   1.188   2.013   0.231 -0.4580  0.9382 -0.2855
  125SOL    HW2  388   1.216   1.924   0.351  2.2729  0.4171 -1.2390
  126SOL     OW  389   3.339   1.284   1.599 -0.1641 -0.7091 -0.4751
  126SOL    HW1  390   3.412   1.257   1.543 -0.1378 -1.3035 -0.1723
  126SOL    HW2  391   3.332   1.378   1.587  0.2692 -0.7377 -0.9672
  127SOL     OW  392   1.077   0.507   1.061 -0.5345 -0.3708  0.0743
  127SOL    HW1  393   1.164   0.539   1.083 -0.5319  0.3359 -0.8843
  127SOL    HW2  394   1.025   0.522   1.140 -0.5335  2.0511 -0.3218
  128SOL     OW  395   1.183   0.950   0.665 -0.3221  0.8028  0.1764
  128SOL    HW1  396   1.121   1.021   0.648  1.7572  2.4016 -1.2819
  128SOL    HW2  397   1.262   0.976   0.618  1.0569 -1.7544  0.9090
  129SOL     OW  398   0.639   0.588   0.727 -0.5908 -0.0405  0.2443
  129SOL    HW1  399   0.639   0.674   0.769 -3.0202 -0.4469  1.2621
  129SOL    HW2  400   0.621   0.606   0.635 -1.7970  0.5502  0.5718
  130SOL     OW  401   2.124   2.640   0.307 -0.0352  0.5246  0.7419
  130SOL    HW1  402   2.194   2.697   0.338  1.1225  0.1428 -1.0517
  130SOL    HW2  403   2.086   2.604   0.387  0.9665  1.7242  1.8025
  131SOL     OW  404   3.410   1.962   1.585  0.3141 -0.3147  0.3181
  131SOL    HW1  405   3.372   1.934   1.668  1.0547  1.4480  1.3134
  131SOL    HW2  406   3.500   1.929   1.588  0.3362 -0.2638  0.2191
  132SOL     OW  407   2.565   2.590   1.372 -0.3787 -0.1040  0.0773
  132SOL    HW1  408   2.616   2.670   1.360 -1.1977  0.6664  1.4992
  132SOL    HW2  409   2.627   2.528   1.411 -0.2790  0.5541  1.0003
  133SOL     OW  410   1.462   2.060   0.130 -0.3550 -0.2928  0.2611
  133SOL    HW1  411   1.414   2.136   0.098 -0.6306 -1.2394 -1.7335
  133SOL    HW2  412   1.398   1.989   0.128  0.2195 -0.8449  0.9165
  134SOL     OW  413   1.591   2.657   0.213  0.2432 -0.3981  0.3834
  134SOL    HW1  414   1.520   2.706   0.171 -0.7929 -3.1562 -1.3685
  134SOL    HW2  415   1.651   2.636   0.142  1.1033 -0.9242  1.2396
  135SOL     OW  416   2.298   2.096   1.087 -0.0604 -0.0955 -0.6385
  135SOL    HW1  417   2.342   2.013   1.106 -0.5113 -0.2179 -0.1107
  135SOL    HW2  418   2.369   2.158   1.072  0.2867 -0.4159 -0.3387
  136SOL     OW  419   3.218   0.651   1.142  0.2669 -0.6018  0.4522
  136SOL    HW1  420   3.310   0.637   1.118  0.2402  1.1085 -0.8232
  136SOL    HW2  421   3.192   0.728   1.092 -1.8108 -0.9155  0.9763
  137SOL     OW  422   2.279   0.830   1.812  0.4754  1.1665 -1.0258
  137SOL    HW1  423   2.244   0.911   1.849 -0.0920  0.8095 -0.7705
  137SOL    HW2  424   2.352   0.806   1.869  1.1335  1.8980 -1.5398
  138SOL     OW  425   0.875   2.051   0.389  0.0756 -0.4556  0.1293
  138SOL    HW1  426   0.963   2.051   0.350 -0.6728 -0.8468 -1.6816
  138SOL    HW2  427   0.887   2.092   0.475  1.8563  0.4141 -0.4690
  139SOL     OW  428   2.424   0.649   0.815 -0.0793 -0.0127  0.0913
  139SOL    HW1  429   2.502   0.703   0.802 -1.3195  1.7057 -0.6187
  139SOL    HW2  430   2.458   0.561   0.831  1.9847  0.6078 -0.5705
  140SOL     OW  431   2.245   2.270   0.589 -0.5608 -0.5971  0.6912
  140SOL    HW1  432   2.187   2.269   0.513  0.6513 -0.6736 -0.2679
  140SOL    HW2  433   2.293   2.352   0.581 -0.0320 -0.8670  1.0707
  141SOL     OW  434   2.899   0.333   1.927 -0.4732  0.1639  0.3942
  141SOL    HW1  435   2.929   0.407   1.981 -0.8333 -0.7592  1.9249
  141SOL    HW2  436   2.845   0.373   1.859 -0.3962  1.3384  1.0005
  142SOL     OW  437   1.659   2.140   0.605  0.3214 -0.3180  0.3908
  142SOL    HW1  438   1.628   2.228   0.629  1.0689 -0.5432  2.3791
  142SOL    HW2  439   1.608   2.081   0.660  1.2564 -0.9882  0.5566
  143SOL     OW  440   1.577   0.461   0.572  0.1657 -0.2120 -0.5965
  143SOL    HW1  441   1.528   0.538   0.541 -1.8940 -0.4543  1.7446
  143SOL    HW2  442   1.557   0.394   0.507 -1.0407  0.2561 -0.7454
  144SOL     OW  443   1.091   0.002   1.011  0.6377 -0.0867  0.0584
  144SOL    HW1  444   1.133  -0.032   0.933  1.3298 -0.8426  0.7392
  144SOL    HW2  445   1.134   0.086   1.027  0.4936  0.0687 -0.3684
  145SOL     OW  446   0.238   0.396   0.200 -0.5212 -0.4351 -0.4970
  145SOL    HW1  447   0.231   0.370   0.292 -1.0262  0.5300 -0.2470
  145SOL    HW2  448   0.298   0.332   0.162  0.4113 -0.3371  0.7172
  146SOL     OW  449   2.825   1.459   0.928 -0.3115 -0.3609 -0.2494
  146SOL    HW1  450   2.752   1.415   0.885 -0.5917 -1.4061  1.2204
  146SOL    HW2  451   2.813   1.440   1.021  0.6027  1.3129  0.2479
  147SOL     OW  452   2.180   0.417   1.656 -0.4494 -0.3700 -0.3366
  147SOL    HW1  453   2.199   0.450   1.568 -0.5577 -1.7879 -0.9069
  147SOL    HW2  454   2.129   0.488   1.697  1.0150  1.0169 -0.8007
  148SOL     OW  455   1.129   1.279   1.365  0.0529 -0.4427  0.0646
  148SOL    HW1  456   1.087   1.193   1.356 -0.8971 -0.0198  0.2603
  148SOL    HW2  457   1.092   1.315   1.445 -2.5464  1.7053 -1.9136
  149SOL     OW  458   2.138   2.249   1.805 -0.6456  0.3588  0.0093
  149SOL    HW1  459   2.045   2.241   1.783 -0.5652 -1.1659  0.1253
  149SOL    HW2  460   2.156   2.174   1.862  0.4685  1.0888  0.6594
  150SOL     OW  461   2.713   0.438   1.745  0.8996  0.1115 -0.1532
  150SOL    HW1  462   2.739   0.525   1.715 -1.4217  0.5201 -1.1463
  150SOL    HW2  463   2.691   0.391   1.665 -2.6537  0.2822  0.5473
  151SOL     OW  464   2.410   0.217   1.637 -0.3669 -0.1339  0.2473
  151SOL    HW1  465   2.339   0.281   1.647  0.6170  1.1285 -0.5527
  151SOL    HW2  466   2.375   0.136   1.673 -1.3336  1.0828  2.2032
  152SOL     OW  467   2.634   1.605   1.756 -0.0729  0.5436  0.1558
  152SOL    HW1  468   2.705   1.651   1.799 -0.6001  0.4680  1.1305
  152SOL    HW2  469   2.653   1.613   1.662  0.4976  1.6631  0.3597
  153SOL     OW  470   1.566   1.883   0.487 -0.4879  0.6387  0.5049
  153SOL    HW1  471   1.572   1.973   0.453 -2.1544 -0.5250 -3.3910
  153SOL    HW2  472   1.652   1.845   0.467 -0.6474  0.6644 -0.2685
  154SOL     OW  473   3.566   2.089   1.992  0.5072 -0.2722 -0.0950
  154SOL    HW1  474   3.599   2.080   1.903 -1.8338 -0.2721 -1.0279
  154SOL    HW2  475   3.594   2.176   2.019 -0.0181  0.3465 -1.4437
  155SOL     OW  476   0.529   0.862   0.411  0.0036  0.3255  0.1953
  155SOL    HW1  477   0.551   0.851   0.503 -1.0611  1.2088  0.5726
  155SOL    HW2  478   0.562   0.949   0.388 -1.4383  0.9337  0.3018
  156SOL     OW  479   0.992   0.875   1.072  0.4002  0.0693 -0.3130
  156SOL    HW1  480   1.048   0.947   1.043  0.6067 -0.7685 -2.1811
  156SOL    HW2  481   1.041   0.832   1.142  2.6523 -1.2267 -2.5130
  157SOL     OW  482   3.406   0.127   1.695  0.2329  0.5570 -0.2091
  157SOL    HW1  483   3.349   0.069   1.745 -1.0938  0.8320 -1.3425
  157SOL    HW2  484   3.355   0.208   1.685  0.5816  0.6196 -1.7006
  158SOL     OW  485   1.484   1.061   0.522  0.1532  0.1659  0.2601
  158SOL    HW1  486   1.431   1.138   0.541  1.4096  1.2653 -0.5032
  158SOL    HW2  487   1.437   1.015   0.453 -0.0444  0.8516 -0.0608
  159SOL     OW  488   2.824   1.787   0.574  0.3775  0.1107 -0.1557
  159SOL    HW1  489   2.785   1.853   0.631  1.0634  2.5812 -2.3351
  159SOL    HW2  490   2.859   1.721   0.633 -1.3659  1.0957  2.1015
  160SOL     OW  491   2.696   0.208   0.598 -0.2059 -0.4056 -0.2536
  160SOL    HW1  492   2.723   0.159   0.520  1.4742 -0.9090  0.5956
  160SOL    HW2  493   2.768   0.195   0.661 -0.4678  1.8100  0.5922
  161SOL     OW  494   2.099   0.075   0.916  0.2749  1.0270  0.4430
  161SOL    HW1  495   2.065   0.062   0.828  0.3800 -1.6678  0.7349
  161SOL    HW2  496   2.194   0.070   0.906  0.2499 -1.7379  0.9597
  162SOL     OW  497   1.007   1.041   1.332  0.4224 -0.2856 -0.5302
  162SOL    HW1  498   0.918   1.060   1.364 -0.1220  0.2962 -2.3069
  162SOL    HW2  499   1.022   0.950   1.356  0.1201  0.1305  1.4648
  163SOL     OW  500   1.039   1.370   0.555 -0.0578 -0.3639 -1.0784
  163SOL    HW1  501   0.982   1.375   0.479 -2.9065  0.9596  0.9431
  163SOL    HW2  502   1.073   1.458   0.566 -1.5578  0.0870  0.4041
  164SOL     OW  503   1.818   1.534   1.379  0.2288 -0.0198  0.1232
  164SOL    HW1  504   1.747   1.517   1.441  0.6276 -1.1259  0.2880
  164SOL    HW2  505   1.781   1.512   1.294  0.4548 -0.8948  0.2405
  165SOL     OW  506   2.692   2.759   0.964 -0.1999  0.2341 -0.2606
  165SOL    HW1  507   2.635   2.697   0.917 -0.0446  0.2696 -0.4988
  165SOL    HW2  508   2.640   2.786   1.040 -0.3936  0.0545 -0.3258
  166SOL     OW  509   0.785   2.480   0.678  0.2694 -0.1794 -0.1359
  166SOL    HW1  510   0.694   2.505   0.690 -0.3156 -1.6420 -1.1675
  166SOL    HW2  511   0.784   2.420   0.602  1.7674 -1.7993  1.0231
  167SOL     OW  512   3.165   2.320   0.834 -0.0622 -0.0690 -0.4863
  167SOL    HW1  513   3.161   2.229   0.807  0.7695 -0.3821  0.4171
  167SOL    HW2  514   3.152   2.319   0.929  2.8760  0.4170  0.0134
  168SOL     OW  515   2.397   1.872   1.350  0.2605  0.1851 -0.1100
  168SOL    HW1  516   2.455   1.937   1.389 -0.0406  1.1678 -1.2260
  168SOL    HW2  517   2.360   1.825   1.424 -1.0639  2.6406  0.9105
  169SOL     OW  518   2.237   2.420   1.042 -0.1865 -0.3017 -0.0709
  169SOL    HW1  519   2.323   2.396   1.077 -0.6310 -0.7129  0.7901
  169SOL    HW2  520   2.180   2.420   1.119 -0.4759  2.4153 -0.2150
  170SOL     OW  521   2.842   2.077   0.149 -0.5234 -0.1268 -0.1893
  170SOL    HW1  522   2.877   2.013   0.088  2.9985  1.5439 -0.1432
  170SOL    HW2  523   2.820   2.153   0.095 -1.5547 -0.1695  0.1419
  171SOL     OW  524   2.081   1.982   1.437 -0.4663 -0.4482 -0.4019
  171SOL    HW1  525   2.071   1.888   1.426  0.9219 -0.6287 -0.2935
  171SOL    HW2  526   2.156   1.992   1.495 -0.0304  0.7272 -1.1205
  172SOL     OW  527   1.244   2.583   1.178 -0.1292  0.9290 -0.0807
  172SOL    HW1  528   1.283   2.649   1.120 -0.0849  0.4938 -0.5534
  172SOL    HW2  529   1.197   2.524   1.119  0.7095 -0.0732  0.2168
  173SOL     OW  530   2.026   1.711   1.411 -0.1582  0.2448 -0.2343
  173SOL    HW1  531   2.064   1.670   1.488 -2.3683 -0.6492  0.4510
  173SOL    HW2  532   1.959   1.650   1.381 -0.6256  1.4310 -1.7634
  174SOL     OW  533   1.075   1.586   1.029  0.1102  0.1852  0.2952
  174SOL    HW1  534   1.057   1.672   0.991  0.8215 -0.2495 -1.0863
  174SOL    HW2  535   1.115   1.536   0.958  1.5188 -0.6611  1.6193
  175SOL     OW  536   2.559   1.352   1.087  0.5075 -0.0373 -0.3281
  175SOL    HW1  537   2.473   1.331   1.123  0.6792 -0.8369 -0.3684
  175SOL    HW2  538   2.560   1.309   1.001  1.5919 -1.5407  0.3922
  176SOL     OW  539   1.981   0.792   0.323 -0.1403  0.4923 -0.1785
  176SOL    HW1  540   1.920   0.741   0.378 -0.1791 -0.7660 -1.3432
  176SOL    HW2  541   1.953   0.773   0.233  2.3308 -0.6432 -0.7910
  177SOL     OW  542   1.529   2.354   1.686 -0.4972  0.5405  0.4351
  177SOL    HW1  543   1.561   2.274   1.644 -0.4231  0.3042  0.9297
  177SOL    HW2  544   1.490   2.323   1.768 -0.5911  0.9974  0.5623
  178SOL     OW  545   1.724   1.344   0.513 -0.2920 -0.2691 -0.0851
  178SOL    HW1  546   1.676   1.336   0.431  0.1694 -0.5043 -0.3385
  178SOL    HW2  547   1.698   1.267   0.563 -2.1833  0.9162  0.8694
  179SOL     OW  548   1.763   2.638   1.683 -0.6351  0.4994  0.1053
  179SOL    HW1  549   1.837   2.588   1.649 -0.4911 -0.4772  1.7511
  179SOL    HW2  550   1.686   2.588   1.657 -0.7398  1.3914 -1.4020
  180SOL     OW  551   2.235   1.609   1.167 -0.3752 -0.5742  0.0192
  180SOL    HW1  552   2.222   1.699   1.137 -1.5791  0.0595  2.2226
  180SOL    HW2  553   2.327   1.591   1.149  0.0917  1.3827  0.2112
  181SOL     OW  554   0.859   1.561   0.114  0.2694 -0.2223  0.2599
  181SOL    HW1  555   0.819   1.581   0.199  0.2074  3.0007 -0.3881
  181SOL    HW2  556   0.787   1.528   0.061  0.4528 -2.9808  1.5695
  182SOL     OW  557   3.507   0.455   1.884 -0.0124  0.2655  0.0965
  182SOL    HW1  558   3.538   0.422   1.969  0.1264  1.4836  0.5479
  182SOL    HW2  559   3.581   0.441   1.825  1.5541  3.0951  1.1529
  183SOL     OW  560   3.154   2.256   1.637  0.6258  0.1481 -0.0689
  183SOL    HW1  561   3.193   2.341   1.659 -1.1404  0.0657  4.5659
  183SOL    HW2  562   3.060   2.272   1.642  0.0975 -1.3586 -3.0963
  184SOL     OW  563   1.496   1.283   0.818  0.8791 -0.0333  0.3208
  184SOL    HW1  564   1.503   1.189   0.835 -0.9140 -0.1266  0.7856
  184SOL    HW2  565   1.583   1.308   0.788  0.9496 -2.1967 -1.5921
  185SOL     OW  566   2.246   2.794   1.705 -0.3742  0.1842  0.1685
  185SOL    HW1  567   2.165   2.807   1.754 -0.8830 -1.4734 -0.1804
  185SOL    HW2  568   2.219   2.787   1.614  0.1119 -0.7189  0.0816
  186SOL     OW  569   1.390   1.465   0.614  0.6648 -0.9376  0.3179
  186SOL    HW1  570   1.386   1.383   0.664  0.7663 -2.0309 -1.3738
  186SOL    HW2  571   1.305   1.507   0.628 -0.0003 -2.1205 -0.0264
  187SOL     OW  572   2.272   0.901   1.342  1.2433 -0.3526  0.0039
  187SOL    HW1  573   2.215   0.978   1.336  0.8066 -0.5603  1.2084
  187SOL    HW2  574   2.339   0.916   1.276 -0.0425  0.0336 -1.2599
  188SOL     OW  575   0.828   0.062   0.741  0.0007  0.3837 -0.0989
  188SOL    HW1  576   0.882   0.034   0.667 -1.8639  1.7401 -2.0768
  188SOL    HW2  577   0.865   0.147   0.766  0.3871  0.1008  0.3269
  189SOL     OW  578   3.678   2.380   1.762 -0.0838  0.1073  0.3562
  189SOL    HW1  579   3.744   2.398   1.829  1.6697 -1.8426 -0.6912
  189SOL    HW2  580   3.674   2.460   1.710  1.0299  0.4870  0.8175
  190SOL     OW  581   2.830   2.151   0.908 -0.2000  0.2611 -0.0176
  190SOL    HW1  582   2.922   2.174   0.922 -0.2107  0.8888 -0.9197
  190SOL    HW2  583   2.784   2.188   0.983  0.4398 -1.1974  1.1394
  191SOL     OW  584   2.357   1.120   0.005 -0.2206 -0.1988  0.3594
  191SOL    HW1  585   2.402   1.103   0.088  0.8680 -1.9879 -0.5313
  191SOL    HW2  586   2.427   1.146  -0.056 -0.8260 -0.0902 -0.3001
  192SOL     OW  587   1.764   2.495   0.681  0.4562 -0.2437 -0.1275
  192SOL    HW1  588   1.748   2.500   0.587  1.3711  0.0306 -0.2824
  192SOL    HW2  589   1.847   2.447   0.689  0.8789  0.5578  0.4811
  193SOL     OW  590   0.931   0.513   0.467  0.2612  0.5723 -0.8414
  193SOL    HW1  591   0.843   0.515   0.429  0.4723 -0.0531 -1.3858
  193SOL    HW2  592   0.959   0.422   0.458  1.7110  1.1161 -2.4878
  194SOL     OW  593   2.148   2.333   0.280 -0.0754 -0.4581  0.0084
  194SOL    HW1  594   2.159   2.426   0.261  0.0189 -0.6305 -0.8451
  194SOL    HW2  595   2.054   2.319   0.280 -0.1084 -0.2630  0.6762
  195SOL     OW  596   3.394   0.704   1.896 -0.2664 -0.6004 -0.2655
  195SOL    HW1  597   3.439   0.730   1.977 -2.5296  1.8917  0.3717
  195SOL    HW2  598   3.406   0.610   1.891  3.0835 -0.3806  0.9439
  196SOL     OW  599   1.973   2.830   0.161 -0.2697 -0.6483  0.3799
  196SOL    HW1  600   1.898   2.831   0.222  0.3947 -1.0390  1.2194
  196SOL    HW2  601   2.028   2.757   0.192  1.9864  1.4601  1.6720
  197SOL     OW  602   1.956   0.237   1.511 -0.4957  0.2903 -0.2048
  197SOL    HW1  603   2.048   0.211   1.518 -0.6674 -0.4271 -0.4527
  197SOL    HW2  604   1.914   0.164   1.464 -0.6689  1.7647 -2.5441
  198SOL     OW  605   2.644   1.278   0.812  0.0860 -0.1199  0.0369
  198SOL    HW1  606   2.706   1.255   0.744  0.8605  1.2779  0.2287
  198SOL    HW2  607   2.572   1.320   0.765  0.4665  0.5435  0.0360
  199SOL     OW  608   1.399   0.194   0.764  0.0522 -0.4590  0.0392
  199SOL    HW1  609   1.403   0.279   0.720  0.4854 -0.0979  0.7504
  199SOL    HW2  610   1.326   0.202   0.825 -0.9073 -1.1544 -0.9965
  200SOL     OW  611   1.006   2.429   0.868 -0.0706  0.4879 -0.1104
  200SOL    HW1  612   0.944   2.447   0.798  1.0199  3.8781 -0.4134
  200SOL    HW2  613   1.089   2.466   0.837  0.7265  1.0815  2.4674
  201SOL     OW  614   3.418   2.659   1.921 -0.4474  0.8144  0.0212
  201SOL    HW1  615   3.437   2.611   1.840 -1.4088  2.0269 -0.9714
  201SOL    HW2  616   3.389   2.592   1.982 -0.0086 -0.0950 -0.7411
  202SOL     OW  617   3.234   0.308   1.069  0.0624 -0.1225  0.1583
  202SOL    HW1  618   3.180   0.351   1.136 -1.2117  2.0980 -2.1234
  202SOL    HW2  619   3.310   0.365   1.059 -1.0087  1.0120 -2.0023
  203SOL     OW  620   1.644   1.195   0.201  0.4784  0.7151  0.1804
  203SOL    HW1  621   1.688   1.237   0.127 -0.4933  0.1968 -0.7264
  203SOL    HW2  622   1.601   1.267   0.247  0.1542  0.9177 -0.4258
  204SOL     OW  623   1.678   0.093   1.631 -0.5630  0.2057 -0.1051
  204SOL    HW1  624   1.637   0.007   1.639  1.3581 -0.6602  1.0445
  204SOL    HW2  625   1.720   0.092   1.545  0.0075 -0.2767  0.1731
  205SOL     OW  626   2.254   1.278   1.036 -0.2760  0.4520 -0.1375
  205SOL    HW1  627   2.237   1.291   1.129 -0.6354 -0.7456 -0.0135
  205SOL    HW2  628   2.279   1.364   1.004 -0.2962  0.9183  1.0336
  206SOL     OW  629   2.100   1.853   1.139  0.3501  1.0797  0.1350
  206SOL    HW1  630   2.059   1.831   1.222  0.8384  0.1529  0.1497
  206SOL    HW2  631   2.112   1.948   1.142 -1.5948  1.3552  0.1896
  207SOL     OW  632   2.073   1.983   0.692  0.5590 -0.0656 -0.2261
  207SOL    HW1  633   2.154   1.961   0.738 -0.9889 -0.1874  2.6107
  207SOL    HW2  634   2.093   2.066   0.648  2.9710 -1.3435 -1.8273
  208SOL     OW  635   2.117   1.332   1.802  0.1410  0.0191  0.5076
  208SOL    HW1  636   2.052   1.345   1.733  0.4712  0.2808  0.2455
  208SOL    HW2  637   2.201   1.354   1.762  0.2204  1.3654  1.3237
  209SOL     OW  638   1.069   2.272   0.062  0.1085 -0.0246  0.1926
  209SOL    HW1  639   0.998   2.216   0.092  0.3560 -1.6075 -1.9252
  209SOL    HW2  640   1.148   2.231   0.097  0.0959  0.9764  1.4440
  210SOL     OW  641   0.997   2.782   0.563 -0.3155 -0.2753 -0.2312
  210SOL    HW1  642   1.089   2.763   0.579 -0.2497 -0.5399 -0.8768
  210SOL    HW2  643   0.959   2.697   0.542 -0.5623 -0.0717 -0.6271
  211SOL     OW  644   1.578   0.096   0.944  0.6007  0.0373  0.2282
  211SOL    HW1  645   1.528   0.136   0.873  0.2820  0.2119  0.5482
  211SOL    HW2  646   1.535   0.011   0.959  0.5804  0.0604  0.3033
  212SOL     OW  647   1.626   0.917   0.188 -0.5844 -0.3444  0.3321
  212SOL    HW1  648   1.633   0.894   0.280  0.1216 -0.4861  0.2433
  212SOL    HW2  649   1.630   1.013   0.187 -1.9027 -0.2625  0.5532
  213SOL     OW  650   2.438   0.366   0.853  0.0181  0.1770  0.5443
  213SOL    HW1  651   2.351   0.327   0.849 -0.4463  1.1212  1.0004
  213SOL    HW2  652   2.481   0.322   0.926 -0.9240  1.3073  1.8288
  214SOL     OW  653   2.475   0.054   1.159 -0.2654  0.0043 -0.0126
  214SOL    HW1  654   2.534   0.028   1.230 -2.0152 -1.4267  1.0136
  214SOL    HW2  655   2.496   0.146   1.143  2.6183 -0.5753 -0.1394
  215SOL     OW  656   3.897   2.758   1.639 -0.0477  0.0159  0.3413
  215SOL    HW1  657   3.819   2.704   1.629 -0.9642  1.1937  0.9568
  215SOL    HW2  658   3.919   2.786   1.550 -0.6646  0.1516  0.2319
  216SOL     OW  659   3.523   0.736   1.153 -0.2223  0.2500 -0.7428
  216SOL    HW1  660   3.467   0.779   1.218  0.5912  2.0156 -1.1491
  216SOL    HW2  661   3.602   0.790   1.151  0.9207 -1.3762 -1.1958
  217SOL     OW  662   1.285   1.962   1.561  0.4781 -0.0934  0.3366
  217SOL    HW1  663   1.321   1.938   1.646  0.9520  0.8566  0.4229
  217SOL    HW2  664   1.339   2.036   1.532 -2.0950  2.2551  1.0335
  218SOL     OW  665   1.651   0.247   0.028  0.1732 -0.2713 -0.1477
  218SOL    HW1  666   1.701   0.299   0.091  0.4569  0.2809 -0.8145
  218SOL    HW2  667   1.716   0.189  -0.011 -0.1536 -1.1777  0.6301
  219SOL     OW  668   2.123   1.468   0.241  0.0456 -0.0496 -0.4755
  219SOL    HW1  669   2.182   1.405   0.199 -0.4265 -1.3499  0.7262
  219SOL    HW2  670   2.081   1.418   0.311 -0.4289  1.5867  0.4648
  220SOL     OW  671   0.485   0.012   0.446 -0.0002 -0.3356  0.2824
  220SOL    HW1  672   0.491   0.038   0.538 -0.3490 -0.1456  0.2496
  220SOL    HW2  673   0.574   0.023   0.412 -0.0937  0.5802  0.3300
  221SOL     OW  674   1.210   2.495   0.692  0.0494  0.2978  0.0440
  221SOL    HW1  675   1.304   2.497   0.710 -0.2776 -0.9641  2.3813
  221SOL    HW2  676   1.194   2.405   0.664 -0.6866 -0.0748  1.5367
  222SOL     OW  677   0.750   1.118   1.026  0.1693  0.0531  0.2546
  222SOL    HW1  678   0.829   1.065   1.034 -0.2064 -0.2764  2.2849
  222SOL    HW2  679   0.766   1.194   1.081  0.3502  1.7094 -1.9413
  223SOL     OW  680   2.786   1.778   1.037 -0.1711  0.2055 -0.4575
  223SOL    HW1  681   2.881   1.764   1.040 -0.2011  0.1744  0.4738
  223SOL    HW2  682   2.775   1.846   0.971  0.6757  1.6146  0.7876
  224SOL     OW  683   2.221   1.548   1.539 -0.4743  0.1716 -0.6754
  224SOL    HW1  684   2.273   1.502   1.604 -0.7901  0.3946 -0.2654
  224SOL    HW2  685   2.274   1.623   1.514 -0.5057  0.2779 -0.4186
  225SOL     OW  686   3.252   0.378   1.801 -0.3081 -0.4130  0.5194
  225SOL    HW1  687   3.340   0.403   1.830  0.3997  0.8263 -2.4426
  225SOL    HW2  688   3.196   0.402   1.875  1.5385  0.8506  1.6091
  226SOL     OW  689   1.254   1.810   1.343 -0.5140 -0.6115  0.1119
  226SOL    HW1  690   1.172   1.762   1.351 -3.2271  3.3370 -1.1051
  226SOL    HW2  691   1.272   1.843   1.432 -0.8787 -0.5580  0.1650
  227SOL     OW  692   2.397   0.348   1.330  0.3073 -0.3036  0.5598
  227SOL    HW1  693   2.331   0.412   1.353  0.7873  0.2219  0.4985
  227SOL    HW2  694   2.361   0.264   1.360  0.0139  0.0928  1.3340
  228SOL     OW  695   2.981   2.082   1.308 -0.2010  0.5874 -0.0297
  228SOL    HW1  696   3.049   2.082   1.374  2.5562 -1.9979 -2.5474
  228SOL    HW2  697   2.931   2.002   1.325 -0.4146  0.6750 -0.2360
  229SOL     OW  698   3.008   2.019   0.585  0.0003  0.2891 -0.1485
  229SOL    HW1  699   3.031   1.940   0.536  0.3425 -0.8492  1.7118
  229SOL    HW2  700   2.912   2.023   0.581 -0.1348 -1.0443  0.8307
  230SOL     OW  701   1.345   1.915   1.851  0.4280  0.1972 -0.3033
  230SOL    HW1  702   1.370   1.827   1.878 -2.7004 -1.4741 -2.2514
  230SOL    HW2  703   1.347   1.967   1.931 -1.4886 -2.6530  1.7364
  231SOL     OW  704   1.486   1.378   0.350  0.1529 -0.4378 -0.3332
  231SOL    HW1  705   1.427   1.417   0.285 -1.3676 -1.4903  0.3492
  231SOL    HW2  706   1.451   1.405   0.434  1.2088 -0.3381  0.0875
  232SOL     OW  707   1.244   0.478   0.779 -0.0678 -0.4039 -0.3867
  232SOL    HW1  708   1.257   0.551   0.719  0.5425 -0.6912 -0.6165
  232SOL    HW2  709   1.165   0.501   0.828 -2.4021 -1.4771 -3.2934
  233SOL     OW  710   2.612   1.522   1.419  0.4268  0.5903  0.1861
  233SOL    HW1  711   2.580   1.559   1.337  1.0792  1.6149  0.3781
  233SOL    HW2  712   2.572   1.435   1.423  2.7213 -0.7620 -2.6886
  234SOL     OW  713   1.920   1.600   0.015  0.0620 -0.2830  0.2611
  234SOL    HW1  714   1.865   1.624   0.090 -0.1550 -0.2625  0.0991
  234SOL    HW2  715   1.992   1.549   0.053 -0.0503 -0.2816  0.4818
  235SOL     OW  716   3.011   0.009   1.227 -0.7348 -0.8773 -0.3769
  235SOL    HW1  717   2.996   0.100   1.252  1.6702 -0.5150 -0.0118
  235SOL    HW2  718   3.079  -0.023   1.287  0.8772 -1.8463 -2.5363
  236SOL     OW  719   0.989   1.785   0.067  0.5990  0.2722  0.2937
  236SOL    HW1  720   0.950   1.709   0.111 -1.5218  1.6361  0.9295
  236SOL    HW2  721   0.946   1.789  -0.018  1.3826  0.2623 -0.1195
  237SOL     OW  722   2.679   2.813   1.979  0.5573 -0.0280  0.2332
  237SOL    HW1  723   2.682   2.846   1.889 -0.3938 -0.0733  0.1757
  237SOL    HW2  724   2.597   2.765   1.985  0.5954 -0.0038  1.1387
  238SOL     OW  725   3.230   2.099   1.434 -0.2422  0.0907  0.1861
  238SOL    HW1  726   3.214   2.151   1.512 -0.9373  0.7885 -0.4069
  238SOL    HW2  727   3.303   2.042   1.458  0.7828  1.5685  0.7472
  239SOL     OW  728   3.790   1.326   1.588 -0.2898 -0.1912  0.8155
  239SOL    HW1  729   3.715   1.353   1.641 -0.3564 -1.5410  1.4392
  239SOL    HW2  730   3.863   1.319   1.650 -0.1022 -0.7103  0.5419
  240SOL     OW  731   2.405   1.855   1.081  0.4955  0.1507 -0.3045
  240SOL    HW1  732   2.372   1.831   1.167  1.0514 -0.8449 -0.3524
  240SOL    HW2  733   2.468   1.786   1.059 -0.4084 -0.2203 -1.9571
  241SOL     OW  734   3.749   0.499   1.300  0.5110  0.0209  0.1705
  241SOL    HW1  735   3.698   0.565   1.348 -1.3688 -2.2121  1.4327
  241SOL    HW2  736   3.736   0.418   1.349  3.0030 -1.2837 -1.1355
  242SOL     OW  737   2.155   1.378   1.298 -0.0138 -0.4637  0.8851
  242SOL    HW1  738   2.147   1.453   1.239 -2.1970 -0.2444  1.3636
  242SOL    HW2  739   2.189   1.415   1.379  2.1629 -0.6220  0.1121
  243SOL     OW  740   3.465   2.395   1.022 -0.6870  0.0594  0.1284
  243SOL    HW1  741   3.473   2.355   0.935 -0.6448 -1.9561  1.0037
  243SOL    HW2  742   3.525   2.470   1.020  1.7017 -1.7683 -0.6028
  244SOL     OW  743   2.981   1.871   1.769 -0.2792 -0.8510 -0.4739
  244SOL    HW1  744   2.923   1.824   1.829 -0.9156 -0.5587 -0.8500
  244SOL    HW2  745   3.061   1.819   1.768  0.1467 -0.3380  1.4157
  245SOL     OW  746   1.826   1.608   1.922 -0.3965  0.0996 -0.6854
  245SOL    HW1  747   1.768   1.533   1.915 -0.0715 -0.1343 -0.9008
  245SOL    HW2  748   1.909   1.572   1.953  0.4205  0.0235 -2.7713
  246SOL     OW  749   0.615   0.091   0.062  0.6962  0.5246  0.3305
  246SOL    HW1  750   0.622   0.007   0.017 -1.2030 -0.4516  1.7583
  246SOL    HW2  751   0.684   0.088   0.129  0.2556 -0.1549  0.7612
  247SOL     OW  752   0.799   1.641   0.366  0.4211 -0.3829 -0.6568
  247SOL    HW1  753   0.738   1.714   0.374 -0.2753 -0.8601 -1.4527
  247SOL    HW2  754   0.874   1.666   0.420 -0.7417 -0.0778  0.8716
  248SOL     OW  755   2.784   0.716   1.665  0.0837 -0.2275 -0.3913
  248SOL    HW1  756   2.852   0.741   1.602  0.3047 -0.2590 -0.1674
  248SOL    HW2  757   2.713   0.680   1.611  0.3172 -0.3613 -0.6105
  249SOL     OW  758   2.770   0.007   0.061  0.7136  0.2766 -0.1648
  249SOL    HW1  759   2.688  -0.026   0.025  0.2418  0.4965  0.6930
  249SOL    HW2  760   2.746   0.046   0.145  1.0073  3.8945 -1.5794
  250SOL     OW  761   2.114   0.880   0.709 -0.2658  0.4610 -0.3331
  250SOL    HW1  762   2.024   0.853   0.690 -0.3710  0.4128  0.2320
  250SOL    HW2  763   2.106   0.959   0.762  0.0408  1.1335 -1.2653
  251SOL     OW  764   3.055   1.254   0.931  0.4012 -0.1874  0.0051
  251SOL    HW1  765   3.011   1.333   0.901  0.5646  0.2715  0.9618
  251SOL    HW2  766   3.122   1.284   0.992  1.6785 -0.9209 -0.9674
  252SOL     OW  767   3.412   0.079   1.087 -0.1544  0.1706  0.1212
  252SOL    HW1  768   3.345   0.144   1.068 -0.4780 -0.6583 -1.7824
  252SOL    HW2  769   3.380  -0.001   1.045  2.8839  0.2109 -2.5832
  253SOL     OW  770   1.870   2.313   0.278  0.1085 -0.1505  0.3010
  253SOL    HW1  771   1.867   2.259   0.357 -0.7892 -0.2266  0.2241
  253SOL    HW2  772   1.784   2.301   0.237 -0.2059  1.5297  0.4079
  254SOL     OW  773   2.733   0.663   1.046  0.0813 -0.1325  0.3935
  254SOL    HW1  774   2.811   0.623   1.008  1.1974  1.8108  0.4910
  254SOL    HW2  775   2.691   0.709   0.973  1.0296  1.7826  0.9887
  255SOL     OW  776   2.335   0.605   1.103 -0.3007 -0.6759 -0.2892
  255SOL    HW1  777   2.354   0.590   1.010 -0.2908  2.0460 -0.8148
  255SOL    HW2  778   2.240   0.619   1.106 -0.2621 -0.4713  0.0522
  256SOL     OW  779   3.501   2.609   1.268 -0.3220  0.0428  0.1073
  256SOL    HW1  780   3.482   2.691   1.314  0.3874 -0.6914  1.7888
  256SOL    HW2  781   3.571   2.631   1.207 -0.3875  0.7539  0.2752
  257SOL     OW  782   1.486   0.693   1.759 -0.6487  0.2366  0.2028
  257SOL    HW1  783   1.546   0.717   1.689 -1.9274 -0.4463 -1.1793
  257SOL    HW2  784   1.522   0.612   1.795  0.3940  0.9538  0.8704
  258SOL     OW  785   3.326   0.862   1.349  0.2247  0.2053  0.3356
  258SOL    HW1  786   3.287   0.774   1.352 -1.4031  0.8597 -0.4322
  258SOL    HW2  787   3.272   0.910   1.286  1.2748  1.6779  0.5075
  259SOL     OW  788   1.668   1.731   1.203  0.0218  0.2729 -0.0991
  259SOL    HW1  789   1.630   1.818   1.194 -1.8611 -0.4263  0.7143
  259SOL    HW2  790   1.706   1.731   1.291 -0.8682 -0.0287  0.2984
  260SOL     OW  791   1.510   0.439   1.966  0.3611  0.5970 -0.2733
  260SOL    HW1  792   1.427   0.394   1.978  0.3269  0.8378  0.3840
  260SOL    HW2  793   1.538   0.413   1.878  0.3929 -0.7963  0.1278
  261SOL     OW  794   2.829   0.602   0.598 -0.5512  0.4477  1.2480
  261SOL    HW1  795   2.817   0.557   0.681 -0.3245 -0.2102  0.9271
  261SOL    HW2  796   2.762   0.566   0.540  0.0062  0.0868  0.8161
  262SOL     OW  797   1.036   1.326   0.839  0.2112 -0.1166  0.1642
  262SOL    HW1  798   1.126   1.355   0.852  0.1372 -0.4008  1.4662
  262SOL    HW2  799   1.019   1.341   0.746  0.8353  2.0654  0.3439
  263SOL     OW  800   2.563   0.307   1.086  0.0259 -0.0646 -1.1926
  263SOL    HW1  801   2.652   0.305   1.119 -0.8204 -2.6903  1.3891
  263SOL    HW2  802   2.512   0.345   1.158 -0.9192  2.0002 -2.8675
  264SOL     OW  803   0.628   0.330   0.308 -0.2788  0.4759 -0.1249
  264SOL    HW1  804   0.707   0.276   0.309 -0.6320 -0.0778 -0.8706
  264SOL    HW2  805   0.575   0.296   0.380 -0.4609 -0.1302 -0.5362
  265SOL     OW  806   2.606   0.498   0.490  0.1457 -0.5600 -0.0404
  265SOL    HW1  807   2.602   0.421   0.548  1.7991 -0.0613  0.8038
  265SOL    HW2  808   2.525   0.494   0.440 -2.2696 -0.0776  3.4893
  266SOL     OW  809   1.924   0.009   1.099  0.3860  0.1822  0.6530
  266SOL    HW1  810   2.005   0.026   1.050 -1.1207 -1.6127 -2.8252
  266SOL    HW2  811   1.862   0.073   1.064 -1.6052 -3.1022 -2.5416
  267SOL     OW  812   3.584   1.526   1.256  0.1536  0.0096  0.2266
  267SOL    HW1  813   3.654   1.465   1.234 -1.3329 -1.3836 -0.8707
  267SOL    HW2  814   3.533   1.535   1.176  0.0852  2.4703  0.4489
  268SOL     OW  815   2.997   0.995   0.264  0.4939  0.3844 -0.7370
  268SOL    HW1  816   3.030   0.916   0.222  0.5585 -1.4659  2.5176
  268SOL    HW2  817   2.903   0.982   0.270  0.4974  0.5638 -0.2430
  269SOL     OW  818   1.122   1.635   0.559 -0.0620  0.2281  0.4629
  269SOL    HW1  819   1.181   1.687   0.505  0.1995  1.5159  1.9027
  269SOL    HW2  820   1.059   1.698   0.594 -1.1000 -0.8015  0.5380
  270SOL     OW  821   2.567   2.341   0.744 -0.4610  0.1165  0.5456
  270SOL    HW1  822   2.633   2.295   0.691  0.9967  1.8019  0.7740
  270SOL    HW2  823   2.512   2.385   0.680 -1.9544 -1.9610  0.3208
  271SOL     OW  824   1.555   0.993   0.838  0.1478  0.5790  0.6919
  271SOL    HW1  825   1.588   0.956   0.756 -0.5836  0.6543  0.3556
  271SOL    HW2  826   1.631   0.994   0.896  0.7072  0.6368 -0.0249
  272SOL     OW  827   3.160   0.614   1.434 -0.5129  0.3586  0.1418
  272SOL    HW1  828   3.109   0.695   1.441  0.4134  1.1633 -1.7417
  272SOL    HW2  829   3.132   0.575   1.351  1.0556  0.2343 -0.3687
  273SOL     OW  830   2.316   2.645   1.271 -0.0286 -0.6870 -0.0053
  273SOL    HW1  831   2.386   2.629   1.335 -1.0400  1.1643  1.6635
  273SOL    HW2  832   2.349   2.717   1.217 -0.8619  0.6560  1.2230
  274SOL     OW  833   1.414   1.255   1.450 -0.0650 -0.1819 -0.4670
  274SOL    HW1  834   1.434   1.303   1.370  0.0795 -0.8469 -0.8375
  274SOL    HW2  835   1.324   1.225   1.438  0.8292 -2.7360 -1.6964
  275SOL     OW  836   3.746   0.446   1.702  0.4156  0.3777  0.0978
  275SOL    HW1  837   3.761   0.358   1.735 -0.4392  0.0080 -0.4568
  275SOL    HW2  838   3.828   0.471   1.660  0.8257  0.0505  0.6851
  276SOL     OW  839   3.350   0.323   1.460 -0.1490 -0.6018  0.3916
  276SOL    HW1  840   3.393   0.333   1.375 -0.1751 -2.7589  0.0632
  276SOL    HW2  841   3.410   0.365   1.522  0.3367  0.1509 -0.5565
  277SOL     OW  842   3.002   2.606   1.754  0.2427  0.2924  0.5143
  277SOL    HW1  843   3.063   2.583   1.684  0.9399 -1.1406  1.5662
  277SOL    HW2  844   3.057   2.623   1.830 -0.6199 -0.6257  1.3732
  278SOL     OW  845   2.824   1.691   1.920 -0.5025 -0.0391  0.7489
  278SOL    HW1  846   2.780   1.742   1.989 -0.4153 -0.5229  1.1665
  278SOL    HW2  847   2.911   1.672   1.955 -0.3630 -0.0684  0.3958
  279SOL     OW  848   2.144   2.808   1.463 -0.8920 -0.7764 -0.5023
  279SOL    HW1  849   2.065   2.764   1.431 -1.3987  1.2829 -2.3375
  279SOL    HW2  850   2.210   2.792   1.396 -1.4909  2.2114 -2.0133
  280SOL     OW  851   3.979   2.427   1.797  0.8860  0.0621 -0.4615
  280SOL    HW1  852   4.040   2.466   1.860  0.2992 -2.8828  2.2020
  280SOL    HW2  853   3.956   2.343   1.836 -2.5699 -0.2776 -2.8173
  281SOL     OW  854   3.570   1.242   1.432 -0.1423  0.6779 -0.0199
  281SOL    HW1  855   3.589   1.312   1.370  3.5704 -0.9342 -0.9607
  281SOL    HW2  856   3.639   1.249   1.498  0.8654 -2.4866 -0.5862
  282SOL     OW  857   3.179   1.574   0.871  0.4725  0.0387 -0.5891
  282SOL    HW1  858   3.222   1.587   0.956  0.2758 -0.3797 -0.4267
  282SOL    HW2  859   3.247   1.535   0.816  0.7665  0.8017 -0.7913
  283SOL     OW  860   1.702   2.494   0.416 -0.2348 -0.6249  0.2462
  283SOL    HW1  861   1.664   2.552   0.350  0.7446  0.4891  0.6270
  283SOL    HW2  862   1.789   2.473   0.382  0.0665 -0.4809  0.9136
  284SOL     OW  863   0.946   0.139   0.063  0.2175  0.4889  1.0016
  284SOL    HW1  864   0.981   0.056   0.096 -2.9225 -0.9429  1.0269
  284SOL    HW2  865   0.898   0.176   0.136 -3.0667 -0.5191 -0.4821
  285SOL     OW  866   2.440   1.023   1.152  0.3797 -0.2692  0.3620
  285SOL    HW1  867   2.418   1.056   1.065  0.2835  1.2055  0.9278
  285SOL    HW2  868   2.525   0.980   1.141  0.0860 -0.6224 -0.5726
  286SOL     OW  869   3.689   0.742   1.817 -0.6874 -0.1933 -0.2776
  286SOL    HW1  870   3.595   0.739   1.802 -0.5421  1.2683 -1.7273
  286SOL    HW2  871   3.726   0.691   1.744 -0.2063  2.9197 -2.3981
  287SOL     OW  872   1.587   2.748   1.992 -0.8020  0.2505  0.1062
  287SOL    HW1  873   1.506   2.798   2.001 -2.1985 -1.9863  0.6641
  287SOL    HW2  874   1.562   2.667   1.948  0.5558 -1.6510  2.5463
  288SOL     OW  875   2.729   0.900   1.184  0.0033 -0.3541 -0.2496
  288SOL    HW1  876   2.701   0.853   1.263 -2.3009  0.9943 -0.1762
  288SOL    HW2  877   2.734   0.831   1.117  1.3944 -1.4177  0.8818
  289SOL     OW  878   1.904   0.902   1.696 -0.1741 -0.0333  0.1143
  289SOL    HW1  879   1.896   0.959   1.773 -1.2256 -0.6598  0.4928
  289SOL    HW2  880   1.934   0.960   1.626 -1.3732  1.0274  0.4424
  290SOL     OW  881   3.431   0.529   0.997 -0.2543 -0.2324 -0.0877
  290SOL    HW1  882   3.444   0.517   0.903 -0.1632  0.0537 -0.1102
  290SOL    HW2  883   3.476   0.611   1.018  1.8523 -1.5065  0.6639
  291SOL     OW  884   3.386   1.847   1.260 -0.2643  0.2513  0.4681
  291SOL    HW1  885   3.380   1.925   1.205 -0.4191 -0.8190 -1.0856
  291SOL    HW2  886   3.480   1.835   1.275 -0.2337  0.6622  0.6144
  292SOL     OW  887   2.261   0.674   0.607  0.6060  0.6835  0.2464
  292SOL    HW1  888   2.205   0.750   0.623 -3.0734 -1.8256  0.6990
  292SOL    HW2  889   2.309   0.662   0.689 -1.3640  0.6717  1.4749
  293SOL     OW  890   3.287   1.361   0.721  0.0787 -0.1429 -0.1265
  293SOL    HW1  891   3.363   1.365   0.663  0.2367 -0.0408  0.0861
  293SOL    HW2  892   3.220   1.316   0.670  0.0875  0.2986 -0.5351
  294SOL     OW  893   2.542   2.351   0.044 -0.1089  0.2105  0.4216
  294SOL    HW1  894   2.507   2.263   0.034 -0.0469  0.2902 -0.5948
  294SOL    HW2  895   2.634   2.344   0.019  0.4995  0.1246  2.5002
  295SOL     OW  896   1.218   0.437   1.608  0.1135  0.1286  0.3755
  295SOL    HW1  897   1.237   0.343   1.610  0.2461  0.1442  0.0188
  295SOL    HW2  898   1.282   0.473   1.546  1.8959  0.8718  2.4861
  296SOL     OW  899   1.999   2.711   1.819 -0.3022 -0.0151  0.3018
  296SOL    HW1  900   1.920   2.722   1.766 -0.6876 -0.9600  0.6531
  296SOL    HW2  901   1.998   2.618   1.844  1.1010 -0.1181  0.0279
  297SOL     OW  902   3.640   1.846   1.572 -0.2815 -0.0673 -0.4907
  297SOL    HW1  903   3.682   1.763   1.594  0.4831  0.5324  0.3783
  297SOL    HW2  904   3.659   1.859   1.480  0.8652 -0.1387 -0.2731
  298SOL     OW  905   2.500   0.976   1.485  0.1556 -0.0323 -0.2601
  298SOL    HW1  906   2.442   0.902   1.468 -0.2374  0.4729 -1.1943
  298SOL    HW2  907   2.466   1.014   1.566 -0.9931  0.4016 -0.9193
  299SOL     OW  908   1.487   2.443   0.662 -0.3851  0.1692  0.1850
  299SOL    HW1  909   1.492   2.391   0.742  0.5730 -1.6368 -0.9842
  299SOL    HW2  910   1.575   2.479   0.650 -0.4191  0.1195 -0.2408
  300SOL     OW  911   1.212   2.405   1.526  0.2237 -0.1897  0.1025
  300SOL    HW1  912   1.138   2.413   1.466  0.8598 -3.5713 -1.3614
  300SOL    HW2  913   1.172   2.381   1.610 -0.4448 -0.0053 -0.1615
  301SOL     OW  914   1.959   2.482   1.567 -0.4801 -0.1108  0.1782
  301SOL    HW1  915   2.019   2.407   1.570 -0.4913 -0.0889  1.0062
  301SOL    HW2  916   1.968   2.515   1.477  0.6430 -0.1941  0.2413
  302SOL     OW  917   2.060   2.113   1.211 -0.3491 -0.1077 -0.1170
  302SOL    HW1  918   2.148   2.117   1.174 -1.0601  2.5190 -1.8100
  302SOL    HW2  919   2.074   2.101   1.305  1.9272  2.1879 -0.0613
  303SOL     OW  920   0.377   2.430   0.333  0.2689  0.1682  0.4209
  303SOL    HW1  921   0.366   2.443   0.428  1.5897  2.3661  0.3461
  303SOL    HW2  922   0.346   2.341   0.317 -2.5852  0.6402  2.4793
  304SOL     OW  923   2.072   0.620   1.100 -0.3491 -0.6654  0.0898
  304SOL    HW1  924   1.999   0.620   1.037 -2.7669  0.6316  2.6952
  304SOL    HW2  925   2.030   0.609   1.185  2.3108  1.6705  1.8821
  305SOL     OW  926   3.233   1.732   1.720 -0.1147 -0.6209  1.3062
  305SOL    HW1  927   3.282   1.679   1.783  1.7129  1.3032  1.6041
  305SOL    HW2  928   3.233   1.680   1.640  2.4596 -0.7478  1.3051
  306SOL     OW  929   3.530   0.002   1.502  0.3451  0.0356  0.3547
  306SOL    HW1  930   3.482   0.024   1.582  0.5094  0.2421  0.3971
  306SOL    HW2  931   3.533   0.084   1.452 -0.0661 -0.1752 -0.0287
  307SOL     OW  932   1.214   0.656   1.742  0.1244 -0.3892  0.1580
  307SOL    HW1  933   1.309   0.657   1.736  0.1084 -1.1313 -0.3777
  307SOL    HW2  934   1.188   0.572   1.704 -0.6709 -0.7789  1.4926
  308SOL     OW  935   0.731   1.187   0.513  0.4830 -0.2645 -1.0080
  308SOL    HW1  936   0.676   1.167   0.437 -0.0899 -0.7939 -0.4704
  308SOL    HW2  937   0.711   1.278   0.534 -0.1959 -0.4525 -0.8155
  309SOL     OW  938   1.082   2.058   1.400  0.0472  0.1273 -0.2404
  309SOL    HW1  939   1.113   2.007   1.475 -1.7752 -1.7171 -0.6800
  309SOL    HW2  940   0.993   2.083   1.423 -0.0020  0.8788 -1.1766
  310SOL     OW  941   0.790   1.276   0.146  0.5077 -0.5112 -0.2848
  310SOL    HW1  942   0.771   1.369   0.154  0.7218 -0.5008  0.1337
  310SOL    HW2  943   0.704   1.234   0.150  0.3333 -0.2777 -1.4118
  311SOL     OW  944   1.942   1.380   1.599 -0.4490 -0.2187  0.4310
  311SOL    HW1  945   1.868   1.437   1.621  1.1174  2.9006 -1.5387
  311SOL    HW2  946   1.970   1.410   1.512  2.7282 -1.6577  0.8083
  312SOL     OW  947   1.408   2.292   1.090 -0.0219  0.0151  0.2490
  312SOL    HW1  948   1.386   2.226   1.155  0.8386 -1.1754 -0.6102
  312SOL    HW2  949   1.489   2.331   1.122 -0.5960  0.7505  0.8187
  313SOL     OW  950   3.594   1.694   1.898  0.9508 -0.5797  0.2957
  313SOL    HW1  951   3.649   1.624   1.932 -0.6428 -2.5545 -0.9940
  313SOL    HW2  952   3.656   1.754   1.856  2.4402 -0.6843  2.1875
  314SOL     OW  953   3.825   0.260   1.908 -0.8503  0.7961 -0.4123
  314SOL    HW1  954   3.797   0.169   1.900 -0.3961  0.4600  1.3822
  314SOL    HW2  955   3.781   0.291   1.986 -0.5115  1.9433 -0.6622
  315SOL     OW  956   1.939   1.561   0.897 -0.4392 -0.7108  0.0165
  315SOL    HW1  957   2.007   1.626   0.915 -0.4764 -0.4246 -0.8572
  315SOL    HW2  958   1.973   1.480   0.936  0.3050 -0.5197 -0.2267
  316SOL     OW  959   2.834   1.242   0.599  0.0253 -0.0447  0.5045
  316SOL    HW1  960   2.834   1.328   0.557  2.8679 -0.7254 -1.1542
  316SOL    HW2  961   2.762   1.195   0.557 -0.2909  0.8792 -0.0202
  317SOL     OW  962   2.770   2.531   0.456  0.3542  0.6898 -0.2994
  317SOL    HW1  963   2.849   2.556   0.505 -0.6174  0.5417  1.4402
  317SOL    HW2  964   2.793   2.545   0.364  1.9057  2.0856  0.2447
  318SOL     OW  965   3.019   0.948   1.808 -0.2933  0.1598 -0.2251
  318SOL    HW1  966   3.008   1.038   1.839  0.2545  0.2285 -0.2186
  318SOL    HW2  967   3.076   0.956   1.731 -1.8489  0.0248 -1.4559
  319SOL     OW  968   1.357   1.558   0.195  0.1068  0.0853  0.0315
  319SOL    HW1  969   1.381   1.634   0.143 -1.2543 -0.3402 -1.2952
  319SOL    HW2  970   1.320   1.496   0.132 -0.8867 -0.7756  1.3916
  320SOL     OW  971   1.891   0.520   1.585 -0.2046  0.1009 -0.0181
  320SOL    HW1  972   1.915   0.427   1.582  0.3860  0.2715 -1.8131
  320SOL    HW2  973   1.955   0.559   1.645  1.4085 -0.1834 -1.4905
  321SOL     OW  974   1.471   0.716   0.814  0.2137 -0.1778 -0.1414
  321SOL    HW1  975   1.467   0.810   0.826 -1.4766 -0.3199  0.7781
  321SOL    HW2  976   1.478   0.703   0.719 -0.1600  0.8506 -0.3115
  322SOL     OW  977   2.764   0.852   1.926 -0.6428  0.0436 -0.2154
  322SOL    HW1  978   2.850   0.892   1.942 -0.7883  0.5945 -0.7938
  322SOL    HW2  979   2.774   0.806   1.842 -1.3227  1.3145 -1.0173
  323SOL     OW  980   0.893   2.150   0.673  0.0951 -0.3774  0.1940
  323SOL    HW1  981   0.970   2.141   0.728  0.1020  0.8364  0.4005
  323SOL    HW2  982   0.819   2.137   0.732  0.0994  1.0237  0.5447
  324SOL     OW  983   3.892   0.676   1.975  0.9840 -0.0775  0.5250
  324SOL    HW1  984   3.938   0.660   1.893 -0.8187 -0.2843 -0.4886
  324SOL    HW2  985   3.802   0.695   1.949  0.3901 -0.0391  2.4509
  325SOL     OW  986   1.974   2.654   1.300 -0.3731  0.1164  0.2647
  325SOL    HW1  987   1.963   2.710   1.223  0.3763  0.2509  0.2521
  325SOL    HW2  988   2.010   2.572   1.266  0.2676  0.2925  0.5065
  326SOL     OW  989   1.314   1.890   1.106 -0.5219  0.2128 -0.2742
  326SOL    HW1  990   1.296   1.862   1.196  0.4184  1.3683  0.3096
  326SOL    HW2  991   1.399   1.933   1.111  0.2787 -1.0263 -2.0233
  327SOL     OW  992   2.594   2.048   1.438  0.2629  0.3370 -0.1243
  327SOL    HW1  993   2.650   2.121   1.410  2.4097 -1.1129  0.1647
  327SOL    HW2  994   2.558   2.077   1.522  0.4326  1.3840 -0.3978
  328SOL     OW  995   1.942   0.334   1.923  0.4671 -0.3628  0.0698
  328SOL    HW1  996   1.847   0.325   1.921  0.4079  0.3242 -1.0333
  328SOL    HW2  997   1.975   0.244   1.922 -0.1600 -0.5939 -0.2960
  329SOL     OW  998   3.059   1.795   0.412 -0.1236  0.2045 -0.0510
  329SOL    HW1  999   3.049   1.761   0.323 -0.5311 -2.0916  0.7933
  329SOL    HW2 1000   2.977   1.771   0.456  0.7564 -0.2918  1.3981
  330SOL     OW 1001   0.236   2.587   0.139 -0.1597 -0.8667 -0.2400
  330SOL    HW1 1002   0.290   2.638   0.079  0.4332 -0.4451  0.6215
  330SOL    HW2 1003   0.299   2.546   0.199 -0.7821 -0.1373  0.9623
  331SOL     OW 1004   1.680   2.260   0.073  0.3184  0.5793 -0.3660
  331SOL    HW1 1005   1.676   2.267  -0.022  0.5862  3.2277 -0.2712
  331SOL    HW2 1006   1.599   2.217   0.098  0.9290 -1.5910 -1.8237
  332SOL     OW 1007   2.938   0.212   1.482  0.2918 -0.1365  0.2365
  332SOL    HW1 1008   2.979   0.292   1.515 -0.0841 -0.5890  1.9150
  332SOL    HW2 1009   2.845   0.224   1.497  0.0226 -0.1356 -1.2688
  333SOL     OW 1010   1.913   0.757   0.061  0.2292  0.3617 -0.0135
  333SOL    HW1 1011   1.863   0.750  -0.020 -0.4671  1.2516  0.3262
  333SOL    HW2 1012   1.996   0.714   0.042 -0.4546 -0.6452 -0.7564
  334SOL     OW 1013   2.721   1.927   0.790 -0.6546  0.0849 -0.5146
  334SOL    HW1 1014   2.637   1.953   0.751 -0.9782  0.6178  0.5129
  334SOL    HW2 1015   2.761   2.010   0.818 -0.1633 -0.2437 -0.2225
  335SOL     OW 1016   3.614   0.061   1.877  0.2028  0.1662 -0.5313
  335SOL    HW1 1017   3.564  -0.018   1.899 -0.0286  0.1199 -1.2000
  335SOL    HW2 1018   3.556   0.111   1.819  0.6434  0.4606 -0.7234
  336SOL     OW 1019   1.416   0.593   1.467  0.1435  0.4410 -0.1715
  336SOL    HW1 1020   1.409   0.684   1.497  1.1019  0.0854  1.2141
  336SOL    HW2 1021   1.509   0.583   1.447  0.3586 -0.6939  1.2605
  337SOL     OW 1022   1.493   0.271   0.381  0.0134 -0.3544 -0.2555
  337SOL    HW1 1023   1.523   0.280   0.290  0.4451  1.8453  0.0427
  337SOL    HW2 1024   1.531   0.188   0.410  0.4163 -0.7872 -1.8795
  338SOL     OW 1025   2.991   2.639   0.551  0.0502  0.1363  0.2226
  338SOL    HW1 1026   2.989   2.687   0.469  0.1260  0.4876  0.4222
  338SOL    HW2 1027   3.022   2.703   0.615  2.1872 -0.7177  0.1325
  339SOL     OW 1028   2.355   1.448   1.749  0.1528  0.0092  0.4013
  339SOL    HW1 1029   2.392   1.475   1.833 -1.3340 -0.4143  1.2273
  339SOL    HW2 1030   2.431   1.427   1.694  1.1395 -0.4959  1.9137
  340SOL     OW 1031   1.436   1.592   1.328  0.1155 -0.5502  0.2599
  340SOL    HW1 1032   1.490   1.646   1.385 -0.1391 -1.6342  1.5831
  340SOL    HW2 1033   1.385   1.654   1.276  0.2834  0.4741  1.3028
  341SOL     OW 1034   0.870   2.098   0.090 -0.3965  0.2074  0.5589
  341SOL    HW1 1035   0.806   2.042   0.045 -1.2039  0.0455  1.8617
  341SOL    HW2 1036   0.854   2.083   0.183  0.1182  1.7901  0.9308
  342SOL     OW 1037   1.733   2.176   1.010  0.0388 -0.2270 -0.0324
  342SOL    HW1 1038   1.810   2.222   1.044 -0.7662  0.3839  1.0215
  342SOL    HW2 1039   1.765   2.088   0.988  1.0052 -0.0303  0.5367
  343SOL     OW 1040   2.270   1.180   0.679  0.6680  0.1966 -0.2647
  343SOL    HW1 1041   2.179   1.190   0.707  0.7831  1.6122 -0.3279
  343SOL    HW2 1042   2.272   1.211   0.589  0.9416 -1.2406 -0.7779
  344SOL     OW 1043   1.445   2.545   1.887  0.3886 -0.2384  0.6533
  344SOL    HW1 1044   1.495   2.493   1.825  1.8584  0.7544  0.9553
  344SOL    HW2 1045   1.404   2.481   1.945  0.5772 -1.1028 -0.1451
  345SOL     OW 1046   2.566   1.137   0.536  0.0761 -0.0858 -0.9566
  345SOL    HW1 1047   2.500   1.205   0.546  0.4499  0.2620 -0.8100
  345SOL    HW2 1048   2.522   1.056   0.561  0.2665  0.4051  1.0947
  346SOL     OW 1049   1.888   0.512   1.308 -0.0027  0.2917 -0.3604
  346SOL    HW1 1050   1.798   0.534   1.284  0.0943  0.2118 -0.8259
  346SOL    HW2 1051   1.890   0.516   1.403 -0.5783 -0.0047 -0.3297
  347SOL     OW 1052   1.307   2.195   1.350 -0.5311 -0.0894 -0.0712
  347SOL    HW1 1053   1.228   2.140   1.353 -0.7402  0.0733 -1.5250
  347SOL    HW2 1054   1.282   2.276   1.395 -1.3393  0.0986 -0.8221
  348SOL     OW 1055   2.671   1.233   1.950 -0.1955  0.0863  0.2145
  348SOL    HW1 1056   2.664   1.142   1.921 -1.7772  0.1603  0.2736
  348SOL    HW2 1057   2.729   1.274   1.886  2.1885 -1.3672  1.2933
  349SOL     OW 1058   1.896   1.328   1.122  0.3224  0.1186  0.6236
  349SOL    HW1 1059   1.886   1.265   1.193  2.4953 -0.7595  0.2133
  349SOL    HW2 1060   1.808   1.364   1.109 -1.5114 -4.2118 -0.4113
  350SOL     OW 1061   0.553   0.074   0.720  0.2659  0.2456 -0.4279
  350SOL    HW1 1062   0.519   0.066   0.809  0.7078 -2.2629 -0.4196
  350SOL    HW2 1063   0.647   0.061   0.728  0.1374 -1.5425 -1.3912
  351SOL     OW 1064   1.225   2.746   1.397  0.4240  0.2911 -0.5072
  351SOL    HW1 1065   1.226   2.653   1.419  1.0355  0.0073 -1.6504
  351SOL    HW2 1066   1.317   2.768   1.380  0.2505  1.0329 -0.5477
  352SOL     OW 1067   1.197   0.706   0.579  0.1017  0.6241 -0.6555
  352SOL    HW1 1068   1.187   0.796   0.613  2.0428  0.2739  1.0234
  352SOL    HW2 1069   1.118   0.661   0.610 -1.3556  1.9103 -2.2934
  353SOL     OW 1070   2.986   0.845   1.416 -0.0123  0.1601  0.2276
  353SOL    HW1 1071   2.921   0.886   1.359 -0.4357 -1.9323 -0.9107
  353SOL    HW2 1072   3.023   0.917   1.466 -2.4799  1.5785  0.1803
  354SOL     OW 1073   1.188   2.620   0.275  0.0717  0.0739 -0.2456
  354SOL    HW1 1074   1.268   2.587   0.315  0.0401  0.0296 -0.2177
  354SOL    HW2 1075   1.213   2.702   0.233 -0.2100  0.9668  1.2215
  355SOL     OW 1076   1.615   2.411   1.225 -0.4676 -0.0383  0.0619
  355SOL    HW1 1077   1.562   2.450   1.295  0.6507  0.6791  0.5429
  355SOL    HW2 1078   1.666   2.343   1.269  0.0068  0.1995 -0.1203
  356SOL     OW 1079   3.440   0.994   1.570  0.1803  0.2997 -0.1675
  356SOL    HW1 1080   3.532   0.993   1.596 -0.0850  2.3701  1.0781
  356SOL    HW2 1081   3.440   0.964   1.480  2.2344  1.3718 -0.5817
  357SOL     OW 1082   3.653   0.622   1.495  0.1755 -0.1066 -0.2464
  357SOL    HW1 1083   3.682   0.557   1.558 -0.4472 -0.7628 -0.6182
  357SOL    HW2 1084   3.557   0.621   1.501  0.1085 -0.1246 -1.1304
  358SOL     OW 1085   2.084   1.120   1.297  0.0060  0.2755 -0.2017
  358SOL    HW1 1086   2.121   1.208   1.288 -0.3289  0.3090 -1.4310
  358SOL    HW2 1087   2.035   1.123   1.380  0.2248  1.1602 -0.0958
  359SOL     OW 1088   2.957   0.658   0.365 -0.4883 -0.1400 -0.1289
  359SOL    HW1 1089   2.889   0.604   0.323 -0.0873 -1.5151  0.9255
  359SOL    HW2 1090   2.950   0.637   0.458  2.0142 -1.1072 -0.0815
  360SOL     OW 1091   0.942   1.800   0.614 -0.2580  0.2839 -0.3828
  360SOL    HW1 1092   0.996   1.874   0.642 -0.5687  1.0816 -1.7537
  360SOL    HW2 1093   0.852   1.827   0.632 -0.3656  0.1993 -0.7671
  361SOL     OW 1094   1.668   1.810   0.938  0.0265  0.0059 -0.2625
  361SOL    HW1 1095   1.761   1.831   0.943  0.4042 -1.4721 -0.6951
  361SOL    HW2 1096   1.649   1.761   1.018 -0.5275  0.7948  0.1037
  362SOL     OW 1097   2.648   2.174   1.687 -0.5896 -0.4049 -0.3292
  362SOL    HW1 1098   2.722   2.232   1.707  1.2818 -2.2268 -1.6013
  362SOL    HW2 1099   2.572   2.221   1.721  1.2308  1.0538  2.0903
  363SOL     OW 1100   2.230   2.315   1.555  0.3201 -0.3640 -0.4254
  363SOL    HW1 1101   2.261   2.229   1.526 -2.5854 -0.7937 -2.7880
  363SOL    HW2 1102   2.188   2.297   1.639 -1.7049 -1.7366 -1.6286
  364SOL     OW 1103   0.941   1.319   1.153  0.2358 -0.5841 -0.5396
  364SOL    HW1 1104   0.986   1.337   1.070  0.0592 -1.7557 -0.9117
  364SOL    HW2 1105   1.007   1.274   1.206  0.3963  0.3024  0.0266
  365SOL     OW 1106   3.584   1.412   1.737  0.8791  0.4114  0.5551
  365SOL    HW1 1107   3.531   1.483   1.701  0.9033  0.0267 -0.2499
  365SOL    HW2 1108   3.522   1.354   1.780  0.5677 -0.2519 -0.7341
  366SOL     OW 1109   2.511   2.637   0.795 -0.4195 -0.3525 -0.7133
  366SOL    HW1 1110   2.543   2.546   0.799 -0.2485 -0.2518  0.7987
  366SOL    HW2 1111   2.505   2.656   0.701 -2.4951 -2.6293 -1.1465
  367SOL     OW 1112   0.892   0.994   0.363 -0.3182  0.0045 -0.1325
  367SOL    HW1 1113   0.961   1.050   0.329 -0.4572 -0.6389 -1.5251
  367SOL    HW2 1114   0.868   1.034   0.447 -1.0251  2.5613 -1.4482
  368SOL     OW 1115   0.580   2.345   0.009 -0.1197  0.3214 -0.4734
  368SOL    HW1 1116   0.616   2.272   0.061 -2.0094 -1.0218 -0.9455
  368SOL    HW2 1117   0.650   2.411   0.009  1.0524 -0.8199  1.3181
  369SOL     OW 1118   3.225   2.562   1.153  0.4343  0.0151  0.0057
  369SOL    HW1 1119   3.227   2.525   1.241  2.4103  0.4923  0.2153
  369SOL    HW2 1120   3.316   2.558   1.123  0.3796  2.5913 -0.8277
  370SOL     OW 1121   2.943   0.220   0.754 -0.1342  1.0069  0.1029
  370SOL    HW1 1122   2.955   0.144   0.811 -2.1935 -0.8089 -1.7050
  370SOL    HW2 1123   3.026   0.268   0.761  0.9466 -0.9350  1.9551
  371SOL     OW 1124   3.128   0.422   0.759 -0.1910  0.4390  0.1057
  371SOL    HW1 1125   3.116   0.517   0.755 -1.9006  0.4000  2.3043
  371SOL    HW2 1126   3.169   0.407   0.845 -0.8360 -0.8507  0.2068
  372SOL     OW 1127   1.224   1.513   1.485 -0.2079  0.4326 -0.0264
  372SOL    HW1 1128   1.295   1.481   1.429 -0.0814  0.4577  0.1190
  372SOL    HW2 1129   1.244   1.478   1.572 -0.7130 -0.0847 -0.1111
  373SOL     OW 1130   2.237   0.810   0.296  0.2179  0.0615 -0.5031
  373SOL    HW1 1131   2.244   0.889   0.242  0.5462  1.2515  1.1920
  373SOL    HW2 1132   2.143   0.792   0.300 -0.0340  1.4174  0.4787
  374SOL     OW 1133   2.792   2.532   1.908  0.3085 -0.0283  0.6104
  374SOL    HW1 1134   2.770   2.620   1.937 -1.5002 -0.8209  1.8008
  374SOL    HW2 1135   2.869   2.544   1.852  0.6758  2.1754  1.4835
  375SOL     OW 1136   1.547   1.795   1.507  0.3894 -0.0257  0.1082
  375SOL    HW1 1137   1.538   1.812   1.600 -0.1517 -0.8178  0.2082
  375SOL    HW2 1138   1.592   1.872   1.472  1.0674  0.0405  1.1034
  376SOL     OW 1139   2.284   1.865   0.342  0.2521  0.1475 -0.0225
  376SOL    HW1 1140   2.343   1.939   0.357 -2.0510  1.9222  0.8990
  376SOL    HW2 1141   2.262   1.834   0.430  0.1283 -0.7670 -0.3675
  377SOL     OW 1142   1.883   2.330   1.218 -0.5831 -0.0606 -0.2788
  377SOL    HW1 1143   1.963   2.276   1.227 -0.5505 -0.0994 -0.7625
  377SOL    HW2 1144   1.905   2.394   1.150 -0.7168  0.3974  0.1044
  378SOL     OW 1145   1.460   2.526   1.492  0.3129  0.2283  0.2832
  378SOL    HW1 1146   1.366   2.512   1.479  0.0546  1.3884  0.7435
  378SOL    HW2 1147   1.484   2.463   1.559  0.0605 -0.6997 -0.4864
  379SOL     OW 1148   1.276   1.054   1.669 -0.2548  0.0226  0.3008
  379SOL    HW1 1149   1.344   1.021   1.611 -0.5607  1.9090 -1.2188
  379SOL    HW2 1150   1.194   1.023   1.630 -0.4624  1.3156 -0.3585
  380SOL     OW 1151   3.356   1.554   1.910  0.0938  0.1710  0.0852
  380SOL    HW1 1152   3.390   1.499   1.980  1.0859  0.1983 -0.3654
  380SOL    HW2 1153   3.422   1.623   1.898 -1.5854  2.1301  1.3645
  381SOL     OW 1154   1.703   0.264   1.283  0.1008  0.1847 -0.2795
  381SOL    HW1 1155   1.727   0.171   1.291  0.8833  0.1640 -2.3043
  381SOL    HW2 1156   1.783   0.311   1.304  0.2232  0.3329 -1.0696
  382SOL     OW 1157   2.636   2.072   2.006 -0.5964 -0.1033 -0.1802
  382SOL    HW1 1158   2.588   2.097   1.926 -2.5028 -0.4931  0.8030
  382SOL    HW2 1159   2.685   2.151   2.029  1.7839 -0.6188 -2.8932
  383SOL     OW 1160   1.682   1.466   0.842 -0.2785 -0.3077 -0.1612
  383SOL    HW1 1161   1.769   1.489   0.876  0.3008 -0.7799 -1.2733
  383SOL    HW2 1162   1.622   1.485   0.915  0.6326  0.9102  0.3126
  384SOL     OW 1163   2.167   2.618   0.835 -0.1340  0.0591 -0.2296
  384SOL    HW1 1164   2.229   2.690   0.843  0.3714 -0.3892  0.0158
  384SOL    HW2 1165   2.196   2.554   0.901  0.0990 -0.8452 -1.1718
  385SOL     OW 1166   2.524   0.320   0.032 -0.1328  0.5028 -0.3967
  385SOL    HW1 1167   2.564   0.371   0.102 -1.0736  0.2454  0.3560
  385SOL    HW2 1168   2.488   0.385  -0.028 -1.9757  0.7867  0.9293
  386SOL     OW 1169   1.404   2.412   0.384 -0.1296  0.0928  0.1114
  386SOL    HW1 1170   1.421   2.412   0.478 -0.3526 -0.2239  0.1549
  386SOL    HW2 1171   1.490   2.420   0.344 -0.1505  1.9015  0.3537
  387SOL     OW 1172   2.142   2.418   1.304  0.1386  0.1772 -0.8511
  387SOL    HW1 1173   2.208   2.487   1.313 -1.2151  1.2926  2.0554
  387SOL    HW2 1174   2.156   2.362   1.380 -1.2426 -0.4632 -1.0351
  388SOL     OW 1175   0.455   1.965   0.295 -0.4703 -0.6104 -0.4613
  388SOL    HW1 1176   0.547   1.946   0.313 -0.2887  0.2328 -0.4910
  388SOL    HW2 1177   0.407   1.908   0.357  0.0919 -0.0224  0.5461
  389SOL     OW 1178   2.576   1.675   0.742  0.3656 -0.2144 -0.4944
  389SOL    HW1 1179   2.540   1.736   0.677 -1.4157 -0.1544  0.5166
  389SOL    HW2 1180   2.642   1.727   0.788  0.1291  0.3997 -0.8244
  390SOL     OW 1181   3.150   2.722   1.962  0.4333  0.6125  0.1645
  390SOL    HW1 1182   3.107   2.798   1.922 -0.9109 -0.1122  0.1789
  390SOL    HW2 1183   3.240   2.726   1.930 -0.8206 -0.6751 -4.1677
  391SOL     OW 1184   3.735   1.016   1.728  0.5859 -0.2752 -0.4882
  391SOL    HW1 1185   3.735   0.960   1.805  0.2814  0.7741  0.2979
  391SOL    HW2 1186   3.746   1.105   1.763 -3.2235  0.6711 -1.2888
  392SOL     OW 1187   1.613   1.634   0.649 -0.2065 -0.2335 -0.1431
  392SOL    HW1 1188   1.627   1.583   0.729  1.0452 -0.8550 -0.7119
  392SOL    HW2 1189   1.556   1.579   0.595  0.4403 -0.6618 -0.4044
  393SOL     OW 1190   1.879   0.730   0.663 -0.3074 -0.3223  0.3364
  393SOL    HW1 1191   1.852   0.672   0.592 -0.5698  0.0794  0.1044
  393SOL    HW2 1192   1.829   0.811   0.649  0.1477  0.0102  0.5769
  394SOL     OW 1193   2.777   0.039   1.733  0.5958 -0.3483  0.1549
  394SOL    HW1 1194   2.853  -0.011   1.704  0.3999 -1.0147  0.7630
  394SOL    HW2 1195   2.812   0.124   1.759  1.3618 -1.1204  1.7747
  395SOL     OW 1196   1.937   2.539   1.031 -0.2005 -0.4831 -0.1141
  395SOL    HW1 1197   1.998   2.571   0.965  0.2500  0.7059  0.8510
  395SOL    HW2 1198   1.851   2.567   0.999 -0.1850 -1.3939 -1.0264
  396SOL     OW 1199   2.173   1.698   0.794  0.7793  0.4754 -0.1070
  396SOL    HW1 1200   2.181   1.786   0.831 -0.8670 -0.5006  2.9337
  396SOL    HW2 1201   2.089   1.699   0.748  1.2773  0.7837 -1.0172
  397SOL     OW 1202   2.552   0.107   0.361  0.2096  0.2877 -0.1743
  397SOL    HW1 1203   2.557   0.129   0.268  0.6631  0.8545 -0.0234
  397SOL    HW2 1204   2.501   0.179   0.400 -0.1543 -0.0525 -0.0126
  398SOL     OW 1205   3.089   0.334   0.491  0.3757  0.2101 -0.7712
  398SOL    HW1 1206   3.071   0.394   0.563 -0.2870  0.4427 -1.1284
  398SOL    HW2 1207   3.174   0.295   0.514 -0.1025 -0.1688  0.4299
  399SOL     OW 1208   2.191   2.200   0.866 -0.0877  0.5120 -0.1708
  399SOL    HW1 1209   2.216   2.255   0.791  1.2083  0.0492 -0.0898
  399SOL    HW2 1210   2.225   2.246   0.942 -1.3900  0.9715  0.1590
  400SOL     OW 1211   0.520   1.154   0.345 -0.2613  0.1819 -0.2451
  400SOL    HW1 1212   0.440   1.158   0.397 -0.0727 -2.0149  0.3415
  400SOL    HW2 1213   0.493   1.174   0.256 -1.5819 -0.8915 -0.1211
  401SOL     OW 1214   1.991   0.945   1.105 -0.4723  0.0088  0.0613
  401SOL    HW1 1215   2.004   1.011   1.173  0.2258  0.3572 -0.3958
  401SOL    HW2 1216   2.065   0.884   1.117  0.4167  0.7913 -1.1886
  402SOL     OW 1217   2.482   1.898   0.665  0.1262 -1.0777 -0.1450
  402SOL    HW1 1218   2.397   1.908   0.708  0.3829  0.2143  0.1006
  402SOL    HW2 1219   2.474   1.948   0.584  1.0543  0.1873  0.5003
  403SOL     OW 1220   1.609   2.031   1.952 -0.2086  0.3131 -0.2422
  403SOL    HW1 1221   1.699   2.063   1.943 -0.5083  2.0045  2.0567
  403SOL    HW2 1222   1.615   1.964   2.020 -0.4944 -0.7351 -1.2035
  404SOL     OW 1223   0.641   1.456   0.513 -0.1555 -0.4186 -0.3316
  404SOL    HW1 1224   0.708   1.515   0.477 -0.8175 -0.6289 -1.9767
  404SOL    HW2 1225   0.573   1.454   0.446 -0.0953 -3.1451 -0.4086
  405SOL     OW 1226   1.157   2.303   0.426 -0.1594 -0.1866  0.1624
  405SOL    HW1 1227   1.250   2.319   0.407 -0.0302  0.8997  1.5875
  405SOL    HW2 1228   1.143   2.212   0.399  0.9951  0.0014 -1.2166
  406SOL     OW 1229   1.601   0.630   0.124  0.3112 -0.1885 -0.3061
  406SOL    HW1 1230   1.630   0.720   0.110 -2.7022  0.6492 -2.1715
  406SOL    HW2 1231   1.625   0.585   0.043  0.8932 -0.8222  0.2096
  407SOL     OW 1232   2.818   0.441   0.834 -0.5875  0.1310 -0.0555
  407SOL    HW1 1233   2.851   0.374   0.774 -0.4889  0.3299 -0.2224
  407SOL    HW2 1234   2.758   0.394   0.891 -3.7724  0.5495 -2.7422
  408SOL     OW 1235   1.394   0.904   1.461  0.0630 -0.2766 -0.6593
  408SOL    HW1 1236   1.315   0.905   1.406 -0.2641 -1.2602 -0.2272
  408SOL    HW2 1237   1.467   0.906   1.399 -0.3015 -1.0798 -1.1232
  409SOL     OW 1238   1.128   2.001   0.662 -0.2317  0.2219  0.3619
  409SOL    HW1 1239   1.204   2.013   0.720 -0.3632  1.3962  0.3180
  409SOL    HW2 1240   1.160   2.023   0.575 -0.8777  1.8284  0.4996
  410SOL     OW 1241   2.253   0.101   0.163  0.0608  0.6056 -0.2312
  410SOL    HW1 1242   2.198   0.023   0.156 -0.5463  1.1086 -1.3158
  410SOL    HW2 1243   2.206   0.159   0.223  0.9968 -0.2207  1.3763
  411SOL     OW 1244   0.968   2.057   1.137 -0.4080 -0.1617 -0.1591
  411SOL    HW1 1245   1.025   2.126   1.101 -0.1330 -0.5754 -0.5347
  411SOL    HW2 1246   0.989   2.055   1.230  0.4148 -0.5041 -0.3428
  412SOL     OW 1247   2.889   1.311   1.779  0.1908 -0.0968  0.1956
  412SOL    HW1 1248   2.982   1.333   1.784  0.0174  0.5450  0.7058
  412SOL    HW2 1249   2.850   1.380   1.725 -0.5114  1.4694  2.5593
  413SOL     OW 1250   0.620   1.981   0.045 -0.3875 -0.3176 -0.5959
  413SOL    HW1 1251   0.565   1.968   0.123  1.2621  0.8348  0.8344
  413SOL    HW2 1252   0.594   1.910  -0.014 -1.7387 -1.2084  0.9645
  414SOL     OW 1253   1.018   2.552   0.049 -0.1094  0.2403 -0.1308
  414SOL    HW1 1254   1.085   2.614   0.076 -2.3220  2.3462  0.8900
  414SOL    HW2 1255   1.052   2.466   0.075  1.7444  1.3157  1.1883
  415SOL     OW 1256   3.627   2.149   1.438  0.8460  0.8528 -0.1005
  415SOL    HW1 1257   3.548   2.119   1.483  1.1217  0.5503  0.1911
  415SOL    HW2 1258   3.595   2.196   1.361  0.3275  2.1504  0.8617
  416SOL     OW 1259   1.724   2.654   0.874  0.3189  0.8050  0.2420
  416SOL    HW1 1260   1.736   2.592   0.802 -1.5039  0.9489 -0.2456
  416SOL    HW2 1261   1.746   2.739   0.837  1.3272  0.6549  0.4652
  417SOL     OW 1262   2.637   0.815   0.853 -0.0684 -0.0652 -0.4010
  417SOL    HW1 1263   2.568   0.875   0.882 -2.2474 -2.5352 -0.0164
  417SOL    HW2 1264   2.679   0.860   0.780 -2.5448  1.3630 -1.0809
  418SOL     OW 1265   1.058   1.628   1.310 -0.5614  0.0666 -0.4411
  418SOL    HW1 1266   1.060   1.594   1.221  0.5582  0.1909 -0.4765
  418SOL    HW2 1267   1.124   1.577   1.357 -0.3688  0.7442  0.0444
  419SOL     OW 1268   2.203   1.724   0.116  0.0023  0.2429 -0.3277
  419SOL    HW1 1269   2.166   1.648   0.161 -0.9357  0.3875 -0.8224
  419SOL    HW2 1270   2.243   1.776   0.186 -0.6304  0.0153  0.2144
  420SOL     OW 1271   2.145   0.946   0.058  0.3434  0.0511  0.5934
  420SOL    HW1 1272   2.062   0.989   0.078 -0.7125 -1.3219 -0.6878
  420SOL    HW2 1273   2.201   1.016   0.024 -1.0489  0.5829 -0.6676
  421SOL     OW 1274   1.558   1.997   1.152  0.2607 -0.3652 -0.1099
  421SOL    HW1 1275   1.601   2.073   1.113  0.1760 -0.5973 -0.6679
  421SOL    HW2 1276   1.548   2.020   1.244 -1.0812  0.9143 -0.5253
  422SOL     OW 1277   2.443   2.220   1.843  0.1928  0.1649 -0.2737
  422SOL    HW1 1278   2.414   2.308   1.867  1.0762 -0.7862  5.7338
  422SOL    HW2 1279   2.385   2.162   1.891  1.9046 -2.4488 -1.1622
  423SOL     OW 1280   2.402   1.057   0.265  0.2842 -0.6423  0.0070
  423SOL    HW1 1281   2.365   1.112   0.334  0.6507 -0.5861  0.1647
  423SOL    HW2 1282   2.497   1.069   0.274  0.5912 -3.4961  1.9234
  424SOL     OW 1283   0.966   2.471   0.321 -0.4970 -0.5013 -0.0219
  424SOL    HW1 1284   1.009   2.398   0.366 -0.0265 -0.1804  0.0588
  424SOL    HW2 1285   1.038   2.520   0.282 -0.2377  2.5020  3.6310
  425SOL     OW 1286   2.392   2.494   0.494  0.4534 -0.5480  0.2640
  425SOL    HW1 1287   2.432   2.578   0.517  1.2775 -1.2240  1.3706
  425SOL    HW2 1288   2.396   2.492   0.398  1.1138  0.3406  0.2601
  426SOL     OW 1289   2.364   1.511   0.871 -0.1438 -0.3278 -0.4622
  426SOL    HW1 1290   2.427   1.582   0.854  0.5569 -0.9821 -0.6803
  426SOL    HW2 1291   2.281   1.545   0.839 -0.1750  1.0476  0.9624
  427SOL     OW 1292   1.908   1.932   0.940 -0.9775 -0.5899 -0.1254
  427SOL    HW1 1293   1.965   1.962   0.869 -0.6268 -0.6239  0.1358
  427SOL    HW2 1294   1.966   1.926   1.016 -1.7475  1.6634  0.7523
  428SOL     OW 1295   1.573   0.495   0.941 -0.0395 -0.2459  0.5834
  428SOL    HW1 1296   1.538   0.574   0.899  0.3045 -0.0019  0.7575
  428SOL    HW2 1297   1.569   0.428   0.872 -1.3054 -0.3557  0.7357
  429SOL     OW 1298   2.545   1.008   1.799  1.1266  0.1324  0.0768
  429SOL    HW1 1299   2.609   0.937   1.798  1.1966  0.1848  0.7440
  429SOL    HW2 1300   2.515   1.013   1.890  0.9959  0.8381  0.0005
  430SOL     OW 1301   1.221   0.244   1.021  0.5495  0.6095 -1.0779
  430SOL    HW1 1302   1.286   0.239   1.091 -2.2291 -2.9974  1.6407
  430SOL    HW2 1303   1.182   0.330   1.031  1.6111  0.9520  0.4883
  431SOL     OW 1304   1.002   2.436   1.342 -0.1178  0.1656 -0.4486
  431SOL    HW1 1305   1.000   2.516   1.289  2.3138 -0.9072 -2.3210
  431SOL    HW2 1306   0.997   2.365   1.279 -0.4120 -1.2053  1.0559
  432SOL     OW 1307   0.975   0.173   1.404  0.3756 -0.5128  0.1074
  432SOL    HW1 1308   0.930   0.126   1.334  0.6991 -0.4264 -0.1593
  432SOL    HW2 1309   1.068   0.165   1.383  0.4366  0.2110  0.0823
  433SOL     OW 1310   3.326   0.978   1.844  0.8382  0.5319 -0.3919
  433SOL    HW1 1311   3.318   0.885   1.862 -2.3905  0.4991 -1.3285
  433SOL    HW2 1312   3.369   0.982   1.758  0.3700 -0.1660 -0.6692
  434SOL     OW 1313   3.904   0.852   1.603 -0.0041  0.2608  0.2261
  434SOL    HW1 1314   3.836   0.896   1.654  0.9746 -0.4648  2.2623
  434SOL    HW2 1315   3.960   0.810   1.668  1.4414 -0.5770 -1.4584
  435SOL     OW 1316   0.774   2.721   0.264  0.4998 -0.4412  0.6090
  435SOL    HW1 1317   0.690   2.679   0.246  0.9633 -0.4207 -1.9757
  435SOL    HW2 1318   0.837   2.650   0.263  0.8248 -0.1622 -0.2284
  436SOL     OW 1319   1.823   2.846   1.406  0.3472  0.2464 -0.2092
  436SOL    HW1 1320   1.738   2.807   1.387  0.9578 -0.4553 -1.7176
  436SOL    HW2 1321   1.886   2.778   1.381  1.3532  0.9177  0.4652
  437SOL     OW 1322   1.567   0.042   0.556  0.2651  0.6635  0.0547
  437SOL    HW1 1323   1.621   0.004   0.624  1.3306  0.3356 -0.9462
  437SOL    HW2 1324   1.502   0.095   0.603 -1.7627 -2.8472  1.5597
  438SOL     OW 1325   1.528   1.273   1.679  0.2940 -0.4652 -0.5479
  438SOL    HW1 1326   1.496   1.266   1.590  2.2932 -0.9529 -1.2813
  438SOL    HW2 1327   1.561   1.185   1.700 -1.9316 -0.9355  1.4556
  439SOL     OW 1328   2.768   2.256   1.402 -0.2721  0.0820  0.2792
  439SOL    HW1 1329   2.789   2.335   1.452 -0.5055 -0.9066  2.0159
  439SOL    HW2 1330   2.840   2.195   1.423 -0.4996 -0.4290 -0.4195
  440SOL     OW 1331   0.554   2.613   0.182  0.0383  0.3365  0.6415
  440SOL    HW1 1332   0.573   2.569   0.100  0.6464  1.6905  0.0359
  440SOL    HW2 1333   0.524   2.543   0.240 -1.2486 -0.5092 -0.9763
  441SOL     OW 1334   0.573   0.860   0.680  0.0217  0.6178  0.2718
  441SOL    HW1 1335   0.530   0.944   0.693  2.5189  2.2652 -1.2244
  441SOL    HW2 1336   0.663   0.874   0.708  0.3160 -1.8576  0.8322
  442SOL     OW 1337   2.430   2.716   1.896 -0.3445  0.6349 -0.0413
  442SOL    HW1 1338   2.401   2.626   1.910  0.2756  0.7587  2.5745
  442SOL    HW2 1339   2.383   2.745   1.819 -0.2362 -2.0556 -1.2336
  443SOL     OW 1340   1.682   1.905   0.066  0.2071  0.5875  0.4441
  443SOL    HW1 1341   1.746   1.897   0.137  0.9626  0.3244 -0.2462
  443SOL    HW2 1342   1.629   1.981   0.089  0.1081  0.1967  1.5479
  444SOL     OW 1343   2.778   2.561   0.178 -0.5914  0.0252 -0.0706
  444SOL    HW1 1344   2.869   2.584   0.159 -0.6664  1.1010  0.7899
  444SOL    HW2 1345   2.733   2.569   0.094 -0.3872  2.0269 -0.0294
  445SOL     OW 1346   2.891   2.519   1.180  0.1139 -0.6527  0.1645
  445SOL    HW1 1347   2.975   2.564   1.175 -0.4962  0.4252 -2.1115
  445SOL    HW2 1348   2.828   2.585   1.151 -1.9857 -0.5382  4.2867
  446SOL     OW 1349   1.333   0.509   1.218  0.4910  0.3108 -0.1268
  446SOL    HW1 1350   1.373   0.422   1.218  0.5975  0.3584  0.2290
  446SOL    HW2 1351   1.375   0.555   1.292  0.4740  0.6799 -0.3445
  447SOL     OW 1352   2.382   1.781   1.850  0.0848 -0.4839 -0.2937
  447SOL    HW1 1353   2.432   1.826   1.918 -0.1410  1.2553 -1.2284
  447SOL    HW2 1354   2.360   1.696   1.889  0.0799  0.3884  1.7482
  448SOL     OW 1355   2.643   2.184   0.352  0.1025  0.4280 -0.5310
  448SOL    HW1 1356   2.649   2.258   0.412  1.0392 -0.4158  0.4611
  448SOL    HW2 1357   2.723   2.189   0.300  0.8276 -0.5996  0.4322
  449SOL     OW 1358   3.458   2.219   1.224  0.4481  0.1028 -0.1678
  449SOL    HW1 1359   3.476   2.137   1.178  1.7641  0.0365  0.4182
  449SOL    HW2 1360   3.455   2.286   1.155 -1.7397 -0.5529 -0.7812
  450SOL     OW 1361   1.804   1.807   1.746  0.0173 -0.1552 -0.3462
  450SOL    HW1 1362   1.827   1.725   1.789 -0.3279 -0.4248 -0.6711
  450SOL    HW2 1363   1.880   1.863   1.758  0.2612 -0.5318 -0.1426
  451SOL     OW 1364   1.757   0.407   0.243  0.2243 -0.4217 -0.3258
  451SOL    HW1 1365   1.841   0.395   0.198  0.4765  0.8544 -0.2320
  451SOL    HW2 1366   1.722   0.488   0.207 -0.3488 -0.2514  0.5892
  452SOL     OW 1367   2.037   0.099   1.988 -0.3566  0.4488  0.3746
  452SOL    HW1 1368   1.952   0.108   2.032 -0.1279 -0.8310  1.1343
  452SOL    HW2 1369   2.023   0.028   1.925 -0.3167  1.4111 -0.7487
  453SOL     OW 1370   2.651   0.276   1.511  0.2470 -0.7878 -0.5410
  453SOL    HW1 1371   2.571   0.248   1.555 -0.3464  0.3472 -0.8721
  453SOL    HW2 1372   2.623   0.342   1.449  1.4528 -0.3291 -0.6235
  454SOL     OW 1373   3.460   1.259   1.908  0.5268  0.6503 -0.1994
  454SOL    HW1 1374   3.414   1.191   1.859  0.1189  1.6648 -1.2864
  454SOL    HW2 1375   3.399   1.283   1.978  1.4974 -1.4615  1.4715
  455SOL     OW 1376   1.227   1.923   0.043 -0.2106 -0.3283 -0.1597
  455SOL    HW1 1377   1.254   1.909  -0.048  1.2610  0.5078  0.1139
  455SOL    HW2 1378   1.150   1.868   0.054  0.4724 -1.6018 -1.4740
  456SOL     OW 1379   2.597   0.621   1.531  0.2259  0.7187  0.2306
  456SOL    HW1 1380   2.586   0.629   1.436  0.5889 -1.6719 -0.0515
  456SOL    HW2 1381   2.508   0.608   1.565  0.1396  1.1773  0.1864
  457SOL     OW 1382   1.426   0.218   1.276 -0.1714  0.6512 -0.0152
  457SOL    HW1 1383   1.517   0.246   1.280 -0.0188  0.0063  1.6900
  457SOL    HW2 1384   1.429   0.123   1.282 -0.9440  0.5797 -0.5165
  458SOL     OW 1385   2.129   0.086   0.642 -0.1607 -0.3528  0.3868
  458SOL    HW1 1386   2.207   0.139   0.630 -0.2977 -0.1605  0.3423
  458SOL    HW2 1387   2.060   0.133   0.595 -0.3688 -0.3711  0.6667
  459SOL     OW 1388   1.666   0.375   1.751  0.7989 -1.3594  0.3159
  459SOL    HW1 1389   1.668   0.322   1.671 -1.2204 -0.2963 -0.5151
  459SOL    HW2 1390   1.731   0.443   1.737  0.4460 -1.1699 -0.4463
  460SOL     OW 1391   2.567   0.660   1.263 -0.3792  0.2685  0.2608
  460SOL    HW1 1392   2.629   0.644   1.192 -0.4491 -1.2053  0.4973
  460SOL    HW2 1393   2.481   0.663   1.219 -0.3102  0.5309  0.1436
  461SOL     OW 1394   1.680   1.498   1.654 -0.5777  0.5608  0.0324
  461SOL    HW1 1395   1.605   1.556   1.668 -1.4534 -0.3410 -0.7547
  461SOL    HW2 1396   1.650   1.412   1.682  0.8377  0.5068  1.5474
  462SOL     OW 1397   2.795   0.447   0.236  0.0091 -0.1031  0.2732
  462SOL    HW1 1398   2.889   0.441   0.223  0.3038 -0.4560  2.2986
  462SOL    HW2 1399   2.773   0.375   0.295 -1.5466 -0.0232 -0.1426
  463SOL     OW 1400   3.132   2.095   1.851 -0.1401 -0.1210 -0.1520
  463SOL    HW1 1401   3.087   2.014   1.827 -1.0268  0.4882 -0.6114
  463SOL    HW2 1402   3.134   2.146   1.770 -0.5679  0.7664  0.3852
  464SOL     OW 1403   1.871   1.155   0.701 -0.1001  0.1073 -0.1906
  464SOL    HW1 1404   1.937   1.151   0.770 -1.9636 -2.3438  1.6430
  464SOL    HW2 1405   1.921   1.161   0.620  2.4049 -1.3389  1.1243
  465SOL     OW 1406   1.593   2.095   1.662 -0.3469  0.2490 -0.4059
  465SOL    HW1 1407   1.681   2.076   1.627  0.0737  1.4719 -0.0478
  465SOL    HW2 1408   1.590   2.048   1.745 -0.6665 -1.1644 -1.1906
  466SOL     OW 1409   3.838   1.901   1.835 -0.3519  0.3867 -0.5492
  466SOL    HW1 1410   3.899   1.877   1.765 -0.6021 -0.0356 -0.6237
  466SOL    HW2 1411   3.769   1.951   1.791 -0.8013 -0.3569 -0.7000
  467SOL     OW 1412   4.065   1.168   1.909 -0.2599  0.3084 -0.6578
  467SOL    HW1 1413   3.998   1.113   1.951  1.6524 -1.4541  0.2671
  467SOL    HW2 1414   4.074   1.133   1.821  0.8562 -0.8441 -0.1141
  468SOL     OW 1415   3.027   1.381   0.284  0.6927  0.0706  0.3578
  468SOL    HW1 1416   2.992   1.356   0.199 -0.0045 -1.1475  0.9755
  468SOL    HW2 1417   2.951   1.390   0.341  1.2347 -1.0045  1.3105
  469SOL     OW 1418   2.806   0.318   1.203 -0.2841  0.0791  0.0619
  469SOL    HW1 1419   2.832   0.267   1.280 -1.5930 -0.7072  0.0195
  469SOL    HW2 1420   2.863   0.395   1.204  1.4663 -1.1881  0.3506
  470SOL     OW 1421   2.368   0.541   0.381 -1.1215 -0.6053  0.3249
  470SOL    HW1 1422   2.378   0.572   0.291  1.2570  0.1681  0.7806
  470SOL    HW2 1423   2.322   0.612   0.425 -0.3917 -0.0328  0.1811
  471SOL     OW 1424   3.525   2.025   1.067  0.3684 -1.0918  0.6128
  471SOL    HW1 1425   3.485   2.048   0.983 -1.8900 -0.1010  1.8514
  471SOL    HW2 1426   3.619   2.036   1.053 -0.0703  1.0591 -1.2244
  472SOL     OW 1427   3.156   0.680   0.674  0.1052 -0.2034 -0.7463
  472SOL    HW1 1428   3.087   0.735   0.638 -0.4951 -0.5629 -0.1587
  472SOL    HW2 1429   3.223   0.742   0.702 -1.2606  0.3839  1.4193
  473SOL     OW 1430   2.740   2.300   1.112 -0.4849  0.3293  0.0022
  473SOL    HW1 1431   2.726   2.269   1.202  0.5345 -0.0639  0.0328
  473SOL    HW2 1432   2.800   2.374   1.121  0.1014 -0.0905 -0.4006
  474SOL     OW 1433   2.888   1.015   0.960  0.1699 -0.9706 -0.1273
  474SOL    HW1 1434   2.848   1.003   1.047 -2.1673 -0.6159 -1.0705
  474SOL    HW2 1435   2.931   1.100   0.966  0.2739 -1.0682  0.7642
  475SOL     OW 1436   0.909   1.101   0.711 -0.4877 -0.0084  0.4624
  475SOL    HW1 1437   0.837   1.116   0.650 -0.8140  0.3212  0.9243
  475SOL    HW2 1438   0.934   1.188   0.742  1.3436  0.0746 -1.0558
  476SOL     OW 1439   1.382   0.739   1.075 -0.0273 -0.1065 -0.4366
  476SOL    HW1 1440   1.384   0.734   0.979  1.2554  0.3256 -0.4590
  476SOL    HW2 1441   1.361   0.650   1.104  0.0187 -0.3412 -1.1086
  477SOL     OW 1442   2.344   1.366   0.138  0.2039  0.3624 -0.0470
  477SOL    HW1 1443   2.373   1.278   0.112 -0.2347  1.0618 -3.3785
  477SOL    HW2 1444   2.316   1.407   0.056  2.0477  4.2729  1.0394
  478SOL     OW 1445   3.680   1.863   1.292 -0.0608 -0.3014  0.0184
  478SOL    HW1 1446   3.708   1.916   1.217  0.0628  1.0078  0.9695
  478SOL    HW2 1447   3.737   1.786   1.289  2.4971  1.4452  0.8671
  479SOL     OW 1448   1.775   2.546   0.053  0.5026  0.1334  0.5603
  479SOL    HW1 1449   1.810   2.457   0.058  0.5462  0.0927 -0.2261
  479SOL    HW2 1450   1.786   2.570  -0.040  0.3747  0.9068  0.7397
  480SOL     OW 1451   1.746   0.887   0.987  0.4440  0.3632  0.4340
  480SOL    HW1 1452   1.822   0.925   1.029  0.1411 -0.7355  2.0535
  480SOL    HW2 1453   1.772   0.797   0.965 -0.9652 -0.7603  2.9450
  481SOL     OW 1454   3.027   0.446   1.638  0.2945  0.1954 -0.1163
  481SOL    HW1 1455   3.099   0.407   1.687  0.6705  0.3947 -0.5085
  481SOL    HW2 1456   3.068   0.511   1.581 -0.4418  2.3008  1.5993
  482SOL     OW 1457   3.778   1.233   1.869 -0.6194  0.1661 -0.4900
  482SOL    HW1 1458   3.696   1.261   1.909 -0.7357 -0.7452 -0.0717
  482SOL    HW2 1459   3.843   1.295   1.902 -0.9361  0.1982  0.0821
  483SOL     OW 1460   2.328   2.052   1.605 -0.2266 -1.0588 -0.3409
  483SOL    HW1 1461   2.344   1.958   1.614  1.0748 -0.7374  0.9704
  483SOL    HW2 1462   2.359   2.090   1.687  1.0873  0.7436 -1.6012
  484SOL     OW 1463   1.336   0.432   0.142 -0.0968 -0.1406 -0.5396
  484SOL    HW1 1464   1.271   0.482   0.092  0.5308 -0.5977 -1.8366
  484SOL    HW2 1465   1.415   0.485   0.138  0.6894 -1.3885 -2.2668
  485SOL     OW 1466   1.411   0.867   1.939 -0.5844 -0.4784  0.3282
  485SOL    HW1 1467   1.440   0.811   1.867  0.7624 -1.0329  1.2531
  485SOL    HW2 1468   1.480   0.933   1.947 -1.3170  0.2883  0.3452
  486SOL     OW 1469   1.786   0.255   1.000  0.1547  0.4818  0.0574
  486SOL    HW1 1470   1.773   0.295   1.086 -1.9100  1.9723 -0.8532
  486SOL    HW2 1471   1.699   0.224   0.975  1.0764 -1.6244 -0.7453
  487SOL     OW 1472   1.720   0.895   1.951 -0.3370 -0.0127 -0.7966
  487SOL    HW1 1473   1.815   0.907   1.954 -0.0504 -1.6251 -2.0763
  487SOL    HW2 1474   1.698   0.866   2.040  0.3496  0.4399 -0.4633
  488SOL     OW 1475   3.380   0.618   1.564 -0.0164 -0.4262  0.4614
  488SOL    HW1 1476   3.358   0.605   1.656  0.3285 -0.6494  0.5132
  488SOL    HW2 1477   3.295   0.618   1.519 -0.2114  0.0277  0.8166
  489SOL     OW 1478   2.469   1.039   0.885 -0.3204 -0.2750 -0.2720
  489SOL    HW1 1479   2.531   1.097   0.842 -1.9855  1.9280  0.1097
  489SOL    HW2 1480   2.383   1.074   0.861 -1.3739 -1.9137  0.9197
  490SOL     OW 1481   2.071   0.393   0.877 -0.5826  0.7682  0.3480
  490SOL    HW1 1482   2.002   0.329   0.895 -0.8868  0.5408 -1.4516
  490SOL    HW2 1483   2.065   0.455   0.949  0.0885 -1.4867  2.4722
  491SOL     OW 1484   1.476   1.261   1.136 -0.5475 -0.5228  0.2393
  491SOL    HW1 1485   1.415   1.302   1.074  0.9236  0.0018 -0.9140
  491SOL    HW2 1486   1.458   1.167   1.127 -0.7505 -0.4197 -0.5737
  492SOL     OW 1487   1.765   2.298   1.474  0.7584 -0.0846 -0.0493
  492SOL    HW1 1488   1.789   2.311   1.383 -0.6145 -1.7761 -0.6974
  492SOL    HW2 1489   1.800   2.375   1.519 -0.3165  1.8403 -2.3025
  493SOL     OW 1490   1.752   2.826   0.344 -0.1421  0.3487 -0.1757
  493SOL    HW1 1491   1.697   2.844   0.420  0.0076  1.1507 -0.2437
  493SOL    HW2 1492   1.701   2.767   0.290  0.0863 -0.9137  0.9408
  494SOL     OW 1493   1.534   2.265   0.849  0.2368  0.2562  0.1204
  494SOL    HW1 1494   1.464   2.263   0.915  0.7408  0.6452  0.6822
  494SOL    HW2 1495   1.612   2.237   0.897  0.8250  1.5402 -0.0375
  495SOL     OW 1496   1.114   1.098   0.964  0.4734  0.2269  0.0593
  495SOL    HW1 1497   1.043   1.156   0.936  0.9034  0.5707 -0.3165
  495SOL    HW2 1498   1.141   1.052   0.885 -0.3097 -0.9828  0.4790
  496SOL     OW 1499   0.437   1.220   0.110 -0.1104 -0.7019  0.4175
  496SOL    HW1 1500   0.381   1.291   0.082  2.4696  1.9705  1.5019
  496SOL    HW2 1501   0.463   1.176   0.029 -0.7853  0.3879 -0.4144
  497SOL     OW 1502   1.284   1.437   0.887 -0.3748  0.3956  0.6072
  497SOL    HW1 1503   1.347   1.371   0.858 -0.7218  0.5684 -0.5964
  497SOL    HW2 1504   1.338   1.513   0.909 -0.1180  0.4694 -0.2116
  498SOL     OW 1505   1.440   2.252   1.898  0.1789 -0.0157  0.0682
  498SOL    HW1 1506   1.348   2.228   1.887 -0.2595  1.5120  0.2875
  498SOL    HW2 1507   1.482   2.171   1.930 -1.5569 -0.0865  2.4048
  499SOL     OW 1508   0.543   0.310   0.577 -0.0862  0.1072  0.6205
  499SOL    HW1 1509   0.582   0.360   0.649  0.7084 -1.6814  1.5022
  499SOL    HW2 1510   0.550   0.218   0.605  0.0358 -0.6429 -1.6451
  500SOL     OW 1511   1.999   0.373   0.124  0.1332 -0.4413  0.5805
  500SOL    HW1 1512   2.029   0.377   0.033 -0.5638 -0.8615  0.3227
  500SOL    HW2 1513   2.079   0.381   0.176  0.4588  0.6771 -0.0463
  501SOL     OW 1514   2.177   1.106   1.953  0.5153  0.1114 -0.2394
  501SOL    HW1 1515   2.261   1.130   1.992  1.1408 -0.6373 -1.1121
  501SOL    HW2 1516   2.150   1.185   1.905  0.5451  0.4660  0.3159
  502SOL     OW 1517   3.335   1.107   0.808 -0.6142 -0.3104 -0.2646
  502SOL    HW1 1518   3.418   1.118   0.855 -0.4237  2.0547 -1.0347
  502SOL    HW2 1519   3.295   1.194   0.809 -2.6212 -1.1647 -0.8191
  503SOL     OW 1520   1.647   0.586   1.193 -0.8108 -0.6576 -0.3520
  503SOL    HW1 1521   1.633   0.680   1.182 -0.3029 -0.4607  0.5546
  503SOL    HW2 1522   1.635   0.549   1.105  2.2593  0.6826 -1.4708
  504SOL     OW 1523   0.371   0.749   0.225  0.0302  0.4243 -0.6671
  504SOL    HW1 1524   0.286   0.731   0.263 -0.3597 -0.5692 -1.9549
  504SOL    HW2 1525   0.423   0.785   0.297 -1.3664  0.7485  0.2001
  505SOL     OW 1526   0.228   2.780   0.328 -0.5668 -0.3608 -0.0874
  505SOL    HW1 1527   0.316   2.817   0.338 -1.3764  1.4016  0.8299
  505SOL    HW2 1528   0.240   2.707   0.267  1.6855 -0.7513  0.7394
  506SOL     OW 1529   3.497   1.595   1.500 -0.0831 -0.0383 -0.2090
  506SOL    HW1 1530   3.492   1.690   1.492  1.1865  0.2741  1.8254
  506SOL    HW2 1531   3.520   1.564   1.413 -1.4870  1.4009 -1.1477
  507SOL     OW 1532   3.196   0.027   1.450 -0.2815 -0.3727  0.0664
  507SOL    HW1 1533   3.123   0.078   1.487 -0.5675  0.3008 -1.3441
  507SOL    HW2 1534   3.265   0.091   1.436  0.2636 -0.8463  0.5662
  508SOL     OW 1535   0.834   0.198   1.080  0.3478  0.1018 -0.2576
  508SOL    HW1 1536   0.749   0.154   1.083  0.8663 -0.9739 -0.5869
  508SOL    HW2 1537   0.897   0.126   1.071  1.2690  0.8970 -0.2802
  509SOL     OW 1538   2.788   1.851   1.334  0.4479 -0.4026  0.2511
  509SOL    HW1 1539   2.722   1.910   1.370  0.0092 -1.6262  1.5400
  509SOL    HW2 1540   2.756   1.830   1.246  1.4115  2.4361 -0.8901
  510SOL     OW 1541   1.108   2.249   1.029  0.8296 -0.0966  0.3012
  510SOL    HW1 1542   1.200   2.242   1.002  0.4208 -1.0181 -0.9289
  510SOL    HW2 1543   1.073   2.320   0.974  0.6815 -0.0860  0.4099
  511SOL     OW 1544   1.542   1.710   1.810 -0.4121 -0.1827 -0.3916
  511SOL    HW1 1545   1.630   1.745   1.800 -0.7734  0.7173 -0.4808
  511SOL    HW2 1546   1.555   1.617   1.831  0.5924  0.3106  1.3285
  512SOL     OW 1547   1.231   1.177   0.475 -0.1973 -0.6502  0.0846
  512SOL    HW1 1548   1.216   1.161   0.382 -2.5413  0.5243  0.1931
  512SOL    HW2 1549   1.168   1.245   0.499  1.8777  0.7514  2.0412
  513SOL     OW 1550   3.005   1.232   1.391  0.0520 -0.6865  0.2403
  513SOL    HW1 1551   2.990   1.295   1.462  0.8365 -2.0910  1.7201
  513SOL    HW2 1552   2.923   1.184   1.383 -1.1880  1.5263 -2.0951
  514SOL     OW 1553   2.849   1.431   1.528 -0.1758 -0.1194  0.0303
  514SOL    HW1 1554   2.883   1.515   1.560 -0.2219 -0.6135  1.4253
  514SOL    HW2 1555   2.770   1.455   1.480 -0.0891  0.6590  0.2510
  515SOL     OW 1556   1.918   1.911   0.216  0.2720 -0.1551  0.7506
  515SOL    HW1 1557   2.004   1.949   0.199  0.7920 -1.0557  1.2940
  515SOL    HW2 1558   1.911   1.910   0.312 -0.7132  0.6865  0.7157
  516SOL     OW 1559   2.191   0.305   0.348 -0.5772  0.2714 -0.2035
  516SOL    HW1 1560   2.277   0.348   0.345 -1.1106  1.3088 -1.2718
  516SOL    HW2 1561   2.168   0.303   0.441  0.7250 -0.3107  0.1386
  517SOL     OW 1562   1.610   1.006   1.728  0.1836  0.2430  0.3596
  517SOL    HW1 1563   1.545   0.955   1.678  0.6550 -0.2617  0.2548
  517SOL    HW2 1564   1.646   0.944   1.790 -0.8718  1.0323  1.8135
  518SOL     OW 1565   2.683   1.720   0.018 -0.1682 -0.7072  0.1808
  518SOL    HW1 1566   2.657   1.797   0.068  0.0399  0.5421 -1.5518
  518SOL    HW2 1567   2.605   1.695  -0.032 -0.1403 -1.4458  0.4869
  519SOL     OW 1568   2.462   1.426   0.616  0.0810 -0.0628 -0.0476
  519SOL    HW1 1569   2.474   1.506   0.668  0.6172 -0.9681  1.3093
  519SOL    HW2 1570   2.433   1.457   0.530 -2.4606  1.4616  1.2241
  520SOL     OW 1571   1.908   1.641   0.602 -1.2087  0.1441 -0.1004
  520SOL    HW1 1572   1.823   1.608   0.575 -0.6463 -1.4761 -0.0057
  520SOL    HW2 1573   1.919   1.607   0.691 -0.8535  1.1210  0.2377
  521SOL     OW 1574   1.951   2.196   0.538  0.0811 -0.2907 -0.5279
  521SOL    HW1 1575   1.871   2.149   0.565  0.9076 -1.6652 -0.3724
  521SOL    HW2 1576   1.970   2.255   0.610 -1.7257  1.3335 -1.2922
  522SOL     OW 1577   1.927   2.446   1.910 -0.2433 -0.0359 -0.0824
  522SOL    HW1 1578   1.985   2.401   1.972  2.1287  0.3041 -1.9244
  522SOL    HW2 1579   1.912   2.381   1.841 -1.7305  0.0420  0.1500
  523SOL     OW 1580   3.189   0.886   0.997  0.1603  0.1520  0.2204
  523SOL    HW1 1581   3.141   0.938   0.932 -2.1199  0.4936  2.0237
  523SOL    HW2 1582   3.238   0.950   1.048 -0.1028  0.1918  0.4282
  524SOL     OW 1583   1.321   1.780   0.403 -0.1420  0.1609  0.6403
  524SOL    HW1 1584   1.338   1.709   0.341  0.2070  0.6778  0.1294
  524SOL    HW2 1585   1.402   1.787   0.453  0.3954  1.1568 -0.3047
  525SOL     OW 1586   0.618   0.399   0.042  0.0073 -0.3574  0.5992
  525SOL    HW1 1587   0.603   0.378   0.134  1.4148 -1.6990  0.5787
  525SOL    HW2 1588   0.661   0.320   0.007 -1.7818 -0.4664 -1.5698
  526SOL     OW 1589   2.555   2.493   1.730  0.7871  0.1963 -0.0804
  526SOL    HW1 1590   2.539   2.469   1.821  0.5751  1.2805  0.1881
  526SOL    HW2 1591   2.498   2.569   1.715 -1.7374 -1.9132 -2.1243
   2.82020   2.82020   1.99418   0.00000   0.00000   0.00000   0.00000   1.41010   1.41010
