alanine dipeptide in vacuum in water
 1591
    1ACE   HH31    1   2.493   1.156   1.277 -1.9584 -0.0410 -0.3438
    1ACE    CH3    2   2.508   1.055   1.315 -0.2132  0.4235  0.3276
    1ACE   HH32    3   2.529   1.073   1.420  2.6375  0.4501 -0.1739
    1ACE   HH33    4   2.596   1.023   1.259  0.3813  3.5719 -0.7579
    1ACE      C    5   2.402   0.951   1.295 -0.0105 -0.1490 -0.5483
    1ACE      O    6   2.300   0.976   1.231 -0.4865 -0.6484 -0.8483
    2ALA      N    7   2.426   0.836   1.357 -0.4713 -0.4520  0.6664
    2ALA      H    8   2.511   0.828   1.411  1.2647 -0.1028 -1.8753
    2ALA     CA    9   2.355   0.714   1.327  0.2864  1.2158 -0.4440
    2ALA     HA   10   2.330   0.700   1.221 -1.9926 -0.9009  0.2753
    2ALA     CB   11   2.423   0.593   1.385  0.3285 -0.2224  0.2328
    2ALA    HB1   12   2.419   0.599   1.494 -1.4376 -0.1533  0.1913
    2ALA    HB2   13   2.377   0.498   1.356  2.2347 -0.8075 -1.0754
    2ALA    HB3   14   2.524   0.586   1.344 -0.6126 -1.6558 -2.0332
    2ALA      C   15   2.218   0.739   1.395 -0.6603  0.8151 -0.3854
    2ALA      O   16   2.218   0.754   1.515 -0.2808  0.8936 -0.4435
    3NME      N   17   2.112   0.713   1.319 -0.3188 -0.1393 -0.3437
    3NME      H   18   2.126   0.701   1.219  2.3015  0.4609 -0.1089
    3NME    CH3   19   1.977   0.720   1.363 -0.5361 -0.4542 -0.1190
    3NME   HH31   20   1.944   0.821   1.386  0.5467  0.1411 -1.0939
    3NME   HH32   21   1.952   0.647   1.440 -0.1819  0.2097  0.6366
    3NME   HH33   22   1.911   0.678   1.287 -2.6841  0.3125  1.2554
    4SOL     OW   23   2.140   0.460   0.991 -0.0279 -0.1304 -0.0961
    4SOL    HW1   24   2.072   0.423   0.936 -0.5316  0.3545  0.1896
    4SOL    HW2   25   2.106   0.454   1.080  1.2658 -1.9722  0.3177
    5SOL     OW   26   1.133   0.488   0.930  0.1947  0.6864  0.1331
    5SOL    HW1   27   1.121   0.493   0.835 -0.0142  1.1430  0.1857
    5SOL    HW2   28   1.058   0.436   0.961  0.7774 -0.3028 -0.0569
    6SOL     OW   29   3.570   2.192   1.901 -0.1550  0.8665 -0.2759
    6SOL    HW1   30   3.535   2.263   1.953  1.2005  0.2884  1.5219
    6SOL    HW2   31   3.660   2.219   1.881  0.3258 -0.2512  0.3085
    7SOL     OW   32   3.200   0.665   0.705  0.1026  0.0877 -0.8021
    7SOL    HW1   33   3.145   0.589   0.686 -0.6497  0.2371  0.6701
    7SOL    HW2   34   3.138   0.738   0.713  0.4616  0.2274  1.0356
    8SOL     OW   35   1.479   1.752   0.188  0.0250  1.1328  0.6320
    8SOL    HW1   36   1.414   1.705   0.136 -1.0655  2.7520  0.4751
    8SOL    HW2   37   1.561   1.738   0.141 -0.4803  0.4224 -0.0789
    9SOL     OW   38   2.356   1.913   0.801 -0.4182  0.0398 -0.0983
    9SOL    HW1   39   2.274   1.943   0.840  0.0407  1.0290  0.1587
    9SOL    HW2   40   2.330   1.871   0.719 -1.1042  1.3879 -0.5991
   10SOL     OW   41   2.685   1.903   1.316 -0.6460 -0.2136  0.0168
   10SOL    HW1   42   2.622   1.944   1.256 -3.2850 -2.8817  0.6763
   10SOL    HW2   43   2.630   1.863   1.383  1.8724 -1.8887  1.2043
   11SOL     OW   44   2.021   2.290   0.040 -0.2000 -0.0914  0.5748
   11SOL    HW1   45   1.955   2.357   0.054 -1.5539 -1.3045  0.1682
   11SOL    HW2   46   1.991   2.241  -0.036 -0.8417 -2.9721  2.5123
   12SOL     OW   47   2.411   2.385   0.036 -0.2684  0.2128 -0.1427
   12SOL    HW1   48   2.327   2.378  -0.010 -0.1824  0.8107 -0.4047
   12SOL    HW2   49   2.389   2.375   0.129 -0.3610 -1.6733 -0.3267
   13SOL     OW   50   1.979   1.229   0.020 -0.1815  0.1002 -0.3339
   13SOL    HW1   51   2.056   1.202   0.070  1.7307  1.4116 -2.3765
   13SOL    HW2   52   1.953   1.150  -0.029 -1.0251 -0.7119  1.3469
   14SOL     OW   53   0.985   2.120   0.560 -0.7993  0.3774 -0.1367
   14SOL    HW1   54   1.080   2.114   0.574 -0.8033  1.0461  0.2011
   14SOL    HW2   55   0.950   2.146   0.645 -1.4708 -1.3986  0.1707
   15SOL     OW   56   1.499   1.616   1.570 -0.0543  0.1487 -0.1400
   15SOL    HW1   57   1.507   1.666   1.652  0.1697  0.7945 -0.5519
   15SOL    HW2   58   1.455   1.535   1.596  2.9202 -1.1682  1.2465
   16SOL     OW   59   1.362   1.664   0.738  0.3991  0.1512 -0.2363
   16SOL    HW1   60   1.288   1.722   0.720  0.4458  0.0330 -0.8348
   16SOL    HW2   61   1.439   1.720   0.732  0.4212  0.0941 -0.5059
   17SOL     OW   62   2.586   0.354   1.619 -0.2572  0.7780  0.3537
   17SOL    HW1   63   2.579   0.427   1.681 -1.0450  1.3738 -0.4252
   17SOL    HW2   64   2.651   0.296   1.659  0.4074  1.9090  0.9779
   18SOL     OW   65   1.793   1.872   0.292  0.7885 -0.6786  0.0168
   18SOL    HW1   66   1.833   1.809   0.231 -0.5315 -1.3813 -0.1547
   18SOL    HW2   67   1.783   1.952   0.240  0.5983 -0.9647 -0.3972
   19SOL     OW   68   1.620   1.766   0.929 -0.3045  0.0758 -0.1869
   19SOL    HW1   69   1.597   1.819   0.852  0.2348  2.5579  1.2284
   19SOL    HW2   70   1.678   1.823   0.980  0.0768 -1.8236  1.6327
   20SOL     OW   71   1.513   1.071   1.605  0.2795 -0.1686 -0.9427
   20SOL    HW1   72   1.467   1.009   1.662 -0.3488  0.4218 -0.7930
   20SOL    HW2   73   1.527   1.148   1.660  2.7787 -0.8353 -0.5172
   21SOL     OW   74   2.288   1.745   1.792  0.3676  0.1565  0.2849
   21SOL    HW1   75   2.238   1.806   1.738  2.5275  0.2926 -1.7425
   21SOL    HW2   76   2.303   1.669   1.735  1.0193 -0.6081  1.4180
   22SOL     OW   77   2.646   0.936   0.745  0.5482  0.2852 -0.3204
   22SOL    HW1   78   2.711   1.005   0.729  0.1014  0.4166 -1.7338
   22SOL    HW2   79   2.650   0.921   0.840  1.5477  1.3599 -0.1623
   23SOL     OW   80   1.236   2.660   0.509  0.2768 -0.1232  0.1508
   23SOL    HW1   81   1.212   2.704   0.591  0.8736 -0.9415  0.7866
   23SOL    HW2   82   1.283   2.727   0.459  0.5865  0.1652  0.8113
   24SOL     OW   83   2.906   1.652   0.272 -0.6673 -0.1275 -0.0713
   24SOL    HW1   84   2.924   1.741   0.242 -2.2646  0.5223  0.8011
   24SOL    HW2   85   2.916   1.598   0.193  1.0527  0.6832 -0.4554
   25SOL     OW   86   1.537   0.901   0.258 -0.2015  0.1748 -0.1891
   25SOL    HW1   87   1.515   0.977   0.205  0.9081  0.5162 -0.1909
   25SOL    HW2   88   1.627   0.917   0.287 -0.6822 -0.0922  1.6187
   26SOL     OW   89   2.694   0.882   0.002  0.3962  0.1526 -0.0753
   26SOL    HW1   90   2.630   0.944   0.039  0.5147  0.9842 -1.2086
   26SOL    HW2   91   2.778   0.913   0.035  0.3410 -0.1582  0.3625
   27SOL     OW   92   3.095   2.470   1.971  0.0150 -0.3748  0.5500
   27SOL    HW1   93   3.002   2.476   1.949 -0.3440 -3.6383  0.6907
   27SOL    HW2   94   3.133   2.550   1.934 -2.4953  0.1188 -1.2664
   28SOL     OW   95   1.274   0.709   1.083 -0.0182  0.1666  0.4171
   28SOL    HW1   96   1.233   0.790   1.051 -0.1439  0.4574  1.3039
   28SOL    HW2   97   1.249   0.643   1.018  0.5514  0.9391 -0.6337
   29SOL     OW   98   1.314   0.878   0.423  0.3747  0.0515  0.2706
   29SOL    HW1   99   1.366   0.940   0.372  1.6878 -0.4786  0.9368
   29SOL    HW2  100   1.252   0.933   0.471  0.8604  0.7669  0.0883
   30SOL     OW  101   1.846   0.779   0.377 -0.0346 -0.8357 -0.1485
   30SOL    HW1  102   1.778   0.756   0.440 -1.8320  0.6958 -1.4171
   30SOL    HW2  103   1.800   0.827   0.308  2.4542  1.0180 -0.6791
   31SOL     OW  104   0.850   2.565   0.682 -0.2326 -0.3046 -0.3961
   31SOL    HW1  105   0.834   2.515   0.761 -3.5251  1.0664 -0.0282
   31SOL    HW2  106   0.943   2.586   0.685 -0.1985 -0.3911  3.0585
   32SOL     OW  107   0.692   1.164   0.781  0.4163 -0.3438 -0.3646
   32SOL    HW1  108   0.736   1.114   0.850  1.0587  1.2866  0.4654
   32SOL    HW2  109   0.615   1.200   0.824  1.1593  1.2179 -0.2605
   33SOL     OW  110   2.793   1.312   1.440 -0.4765  0.3574 -0.0287
   33SOL    HW1  111   2.810   1.228   1.397 -0.9412  0.3355 -0.1711
   33SOL    HW2  112   2.771   1.289   1.530 -1.7114  0.2380 -0.3468
   34SOL     OW  113   1.732   2.633   1.624 -0.2313  0.1239  0.3993
   34SOL    HW1  114   1.709   2.647   1.533  1.7003  0.2013 -0.1246
   34SOL    HW2  115   1.725   2.538   1.637  0.8480 -0.0626 -0.2595
   35SOL     OW  116   3.152   2.266   0.969 -0.4160  0.0355 -0.1282
   35SOL    HW1  117   3.121   2.290   1.056 -1.4674 -0.7694 -0.2594
   35SOL    HW2  118   3.177   2.349   0.929 -1.1850  0.5709  0.4681
   36SOL     OW  119   1.682   2.611   1.090 -0.0322  0.0351 -0.1853
   36SOL    HW1  120   1.775   2.594   1.078  0.2945 -0.1002  2.0325
   36SOL    HW2  121   1.655   2.658   1.011  2.0881  0.7737 -0.5325
   37SOL     OW  122   1.496   0.391   0.409 -0.1959  0.7253  0.2970
   37SOL    HW1  123   1.486   0.314   0.464 -1.0745 -0.2781 -1.2091
   37SOL    HW2  124   1.432   0.454   0.444 -1.1245 -0.0913  0.1019
   38SOL     OW  125   1.280   0.598   0.389  0.3555 -0.1631  0.5031
   38SOL    HW1  126   1.247   0.605   0.478 -0.9472 -0.7972  0.0965
   38SOL    HW2  127   1.292   0.688   0.360 -2.3342  0.1750  0.2387
   39SOL     OW  128   3.388   1.892   0.947 -0.2301 -0.4212 -0.6782
   39SOL    HW1  129   3.314   1.922   0.999 -0.7808 -1.9216 -0.5367
   39SOL    HW2  130   3.435   1.833   1.005  0.6835 -0.0272 -1.0088
   40SOL     OW  131   1.290   0.250   1.650  0.4586  0.3649 -0.1904
   40SOL    HW1  132   1.342   0.274   1.727  0.2738  1.9901 -0.5387
   40SOL    HW2  133   1.199   0.259   1.679  0.1951 -3.3371  0.6997
   41SOL     OW  134   1.385   2.806   0.325  0.5798 -0.3104 -0.9464
   41SOL    HW1  135   1.326   2.851   0.264  1.5189 -0.0983 -1.7215
   41SOL    HW2  136   1.426   2.737   0.272  0.0444 -1.3228 -0.0728
   42SOL     OW  137   2.315   1.848   0.260  0.5534 -1.1041  0.1896
   42SOL    HW1  138   2.398   1.849   0.211  0.1384  2.1504 -0.7059
   42SOL    HW2  139   2.328   1.911   0.331 -0.4146 -2.3404  1.5184
   43SOL     OW  140   2.840   2.733   1.791 -0.3593  0.1941  0.0412
   43SOL    HW1  141   2.925   2.692   1.806 -0.8149  0.0555  2.6561
   43SOL    HW2  142   2.804   2.686   1.715  1.7552  0.1340 -0.9942
   44SOL     OW  143   2.509   2.291   1.979  0.1038  0.0688 -0.2024
   44SOL    HW1  144   2.525   2.283   1.884 -0.6485  2.4763 -0.5903
   44SOL    HW2  145   2.469   2.207   2.003 -0.6506 -0.2306 -2.2370
   45SOL     OW  146   3.059   0.755   1.690  0.3447  0.3951 -0.6392
   45SOL    HW1  147   3.003   0.721   1.759 -0.1783 -0.6791 -1.5657
   45SOL    HW2  148   3.044   0.697   1.615  2.4471  0.2630 -1.0317
   46SOL     OW  149   0.535   0.407   0.012 -0.2435  0.1282  0.1760
   46SOL    HW1  150   0.491   0.433   0.093 -0.7334  0.2091 -0.1143
   46SOL    HW2  151   0.620   0.373   0.041 -1.3603 -2.1890  0.9889
   47SOL     OW  152   1.540   0.104   0.526  0.1727 -0.1711  0.2843
   47SOL    HW1  153   1.499   0.070   0.447  0.6595 -1.4876  0.5793
   47SOL    HW2  154   1.467   0.143   0.575 -0.2944 -0.2312 -0.3408
   48SOL     OW  155   2.699   2.635   0.181 -0.2880 -0.1462  0.0170
   48SOL    HW1  156   2.794   2.647   0.185 -0.2566 -0.5239  2.7396
   48SOL    HW2  157   2.687   2.552   0.136  0.8719 -1.3226  1.7518
   49SOL     OW  158   3.336   1.497   1.860 -0.2958  0.5649 -0.2141
   49SOL    HW1  159   3.356   1.551   1.783  1.4587  0.8300  0.3684
   49SOL    HW2  160   3.277   1.551   1.912  1.4011  1.9888  0.3417
   50SOL     OW  161   1.477   1.060   1.195 -0.0913 -0.3395 -0.8707
   50SOL    HW1  162   1.491   1.014   1.113  0.9055 -0.0576 -0.8637
   50SOL    HW2  163   1.432   1.140   1.170 -1.1889 -0.9605 -0.9595
   51SOL     OW  164   2.903   1.029   1.658  0.2601  0.3145 -0.1085
   51SOL    HW1  165   2.938   1.056   1.573  0.7949  1.3435  0.4280
   51SOL    HW2  166   2.968   0.967   1.691  1.4931  1.9811  0.7428
   52SOL     OW  167   1.381   2.301   0.037 -0.2172 -0.3084  0.3438
   52SOL    HW1  168   1.290   2.281   0.012 -0.2141  0.4355 -0.2860
   52SOL    HW2  169   1.422   2.215   0.045 -1.0820 -0.6732  1.0742
   53SOL     OW  170   0.699   2.092   0.161 -0.5818 -0.3681 -0.0507
   53SOL    HW1  171   0.736   2.064   0.245  0.2235 -2.1390 -0.9538
   53SOL    HW2  172   0.765   2.151   0.124 -1.3229  1.1287  0.8910
   54SOL     OW  173   1.993   2.794   0.096 -0.0189 -0.1963  0.6817
   54SOL    HW1  174   2.004   2.831   0.009 -0.8052  0.1805  0.7441
   54SOL    HW2  175   2.080   2.801   0.136  0.0147  0.8926  0.4291
   55SOL     OW  176   1.483   1.518   1.314 -0.0172  0.0369  0.6802
   55SOL    HW1  177   1.488   1.560   1.400  0.9143  0.3372  0.4860
   55SOL    HW2  178   1.524   1.580   1.254 -1.3494  0.1615 -0.1208
   56SOL     OW  179   1.651   0.037   0.150  0.4236 -0.0656  0.3742
   56SOL    HW1  180   1.637   0.014   0.241  0.3879 -0.4731  0.2661
   56SOL    HW2  181   1.675  -0.045   0.107  2.2480  0.4116  0.3653
   57SOL     OW  182   2.345   1.159   1.605 -0.0842 -0.1383  0.3715
   57SOL    HW1  183   2.277   1.174   1.671  0.2875 -2.4417  1.3923
   57SOL    HW2  184   2.404   1.234   1.614 -1.7264  1.1944  0.4217
   58SOL     OW  185   1.800   1.071   1.277  0.5215  0.1903 -0.3994
   58SOL    HW1  186   1.768   1.025   1.355 -0.1948  0.1520 -0.7154
   58SOL    HW2  187   1.785   1.163   1.296  0.8695  0.2199 -0.2596
   59SOL     OW  188   1.260   1.056   1.514  0.3162  0.6275  0.8514
   59SOL    HW1  189   1.351   1.057   1.544  1.4019 -0.7956 -2.0583
   59SOL    HW2  190   1.249   0.969   1.476 -1.5872  1.5378 -0.8295
   60SOL     OW  191   1.111   1.020   0.521  0.0326 -0.3830  0.3546
   60SOL    HW1  192   1.034   0.963   0.525 -0.1618 -0.0777  1.5810
   60SOL    HW2  193   1.098   1.073   0.443  0.1334 -1.8754 -0.7316
   61SOL     OW  194   1.255   0.204   1.394 -0.9811 -0.2252  0.3813
   61SOL    HW1  195   1.275   0.227   1.485  1.1752 -1.7473  0.3811
   61SOL    HW2  196   1.222   0.114   1.399 -1.3951 -0.1118 -0.3025
   62SOL     OW  197   1.709   1.336   1.281  0.1636  0.2374  0.4635
   62SOL    HW1  198   1.728   1.399   1.351  2.7240  1.3041 -1.0310
   62SOL    HW2  199   1.614   1.328   1.280 -0.1612  2.9260  1.7296
   63SOL     OW  200   1.774   0.219   0.443 -0.0680  0.2012  0.2892
   63SOL    HW1  201   1.705   0.165   0.482 -0.1573  0.2603  0.2122
   63SOL    HW2  202   1.727   0.283   0.390  0.0864 -0.4158 -0.6024
   64SOL     OW  203   2.827   1.752   0.953  0.2649 -0.2664  0.2428
   64SOL    HW1  204   2.793   1.840   0.972  1.2873  0.8737 -2.7315
   64SOL    HW2  205   2.749   1.700   0.934 -0.3073  0.1455  1.3662
   65SOL     OW  206   0.756   0.981   1.012  0.2299  0.0643 -0.2858
   65SOL    HW1  207   0.802   0.910   1.058 -1.1680 -0.5185  0.2703
   65SOL    HW2  208   0.668   0.980   1.049 -0.2116  1.2278 -1.2428
   66SOL     OW  209   2.225   2.644   1.448  0.4836  0.2580  0.4299
   66SOL    HW1  210   2.267   2.632   1.534 -0.0481 -0.5147  0.5942
   66SOL    HW2  211   2.148   2.699   1.466  1.2312  1.4233  0.1771
   67SOL     OW  212   3.713   0.281   1.566  0.2185 -0.2137 -0.2547
   67SOL    HW1  213   3.680   0.213   1.625  0.9015  0.1915  0.6250
   67SOL    HW2  214   3.759   0.234   1.497  0.9973 -0.6505  0.5382
   68SOL     OW  215   0.258   1.322   0.008  0.4203 -0.0339 -0.3818
   68SOL    HW1  216   0.268   1.231  -0.017  1.3951 -0.6872  2.0448
   68SOL    HW2  217   0.347   1.356   0.014  0.2348  0.2738  1.2129
   69SOL     OW  218   0.957   0.508   0.386  0.3412  0.0830  0.2659
   69SOL    HW1  219   0.869   0.471   0.379  0.4387 -0.2099  0.5520
   69SOL    HW2  220   1.015   0.437   0.359  0.4500  0.5447 -0.7462
   70SOL     OW  221   3.884   0.383   1.752 -0.2603  0.2034 -0.1163
   70SOL    HW1  222   3.842   0.341   1.677  3.4717 -2.4275 -1.0689
   70SOL    HW2  223   3.852   0.334   1.828 -0.4051 -0.4396 -0.5772
   71SOL     OW  224   3.338   1.534   1.399  0.3315  0.1854  0.0999
   71SOL    HW1  225   3.257   1.483   1.394  0.5327 -0.2319  0.8835
   71SOL    HW2  226   3.359   1.537   1.492  0.2450  1.8621  0.0969
   72SOL     OW  227   1.171   1.867   0.630  0.2885 -0.1328  0.8273
   72SOL    HW1  228   1.078   1.864   0.607  0.7962 -2.2131 -1.3201
   72SOL    HW2  229   1.202   1.950   0.593 -1.1353  1.9405  3.8871
   73SOL     OW  230   3.005   1.114   1.924  0.2022 -0.0701  1.3296
   73SOL    HW1  231   3.027   1.195   1.878  2.4084 -0.7245  1.1092
   73SOL    HW2  232   2.928   1.081   1.879  0.3593  0.9791  0.2385
   74SOL     OW  233   2.166   0.834   1.027 -0.5449  0.0479 -0.5045
   74SOL    HW1  234   2.156   0.917   1.074 -0.3787  1.0516 -2.1595
   74SOL    HW2  235   2.259   0.830   1.005 -0.6127 -0.4003 -0.7093
   75SOL     OW  236   1.286   0.410   1.235  0.1667 -0.0726 -0.3431
   75SOL    HW1  237   1.345   0.477   1.269  0.3125 -0.0048 -0.7139
   75SOL    HW2  238   1.283   0.343   1.303  1.1236 -0.3433 -0.5560
   76SOL     OW  239   2.516   0.084   0.485  0.2298 -0.0434 -0.3807
   76SOL    HW1  240   2.461   0.158   0.459  2.2007  1.8088  0.3859
   76SOL    HW2  241   2.487   0.064   0.574 -1.0912 -1.0324 -0.9954
   77SOL     OW  242   2.302   1.248   0.773  0.3409  0.8238  0.1697
   77SOL    HW1  243   2.215   1.287   0.766  0.5975  1.3276 -0.2847
   77SOL    HW2  244   2.300   1.174   0.712  0.3371  1.0362 -0.0901
   78SOL     OW  245   2.667   0.778   1.078  0.1422  0.2162  0.5812
   78SOL    HW1  246   2.699   0.816   1.160 -1.0994  0.9816  0.7421
   78SOL    HW2  247   2.736   0.797   1.014  1.0646 -0.2646  1.3939
   79SOL     OW  248   2.618   1.319   0.756 -0.9364 -0.3785  0.3160
   79SOL    HW1  249   2.546   1.298   0.698  1.6064 -1.3463 -2.7998
   79SOL    HW2  250   2.645   1.407   0.730 -2.6305  1.2489  3.4742
   80SOL     OW  251   2.556   1.939   0.141 -0.1448 -0.1481 -0.2101
   80SOL    HW1  252   2.548   2.028   0.173  0.8609 -0.0504 -0.1878
   80SOL    HW2  253   2.647   1.933   0.110 -0.0999 -1.2548  0.0984
   81SOL     OW  254   2.863   1.418   1.861  0.6759  0.2616  0.4838
   81SOL    HW1  255   2.805   1.491   1.837  0.4493  0.0920  0.5070
   81SOL    HW2  256   2.948   1.441   1.823  0.3385  0.0194 -0.4545
   82SOL     OW  257   3.424   1.330   1.157 -0.0491 -0.1990 -0.0540
   82SOL    HW1  258   3.463   1.417   1.149  0.1400 -0.2767  0.0289
   82SOL    HW2  259   3.494   1.270   1.135  0.7915 -0.4681  2.9401
   83SOL     OW  260   0.583   1.899   0.641 -0.4365  0.3794  0.1227
   83SOL    HW1  261   0.592   1.882   0.735  1.3234  2.2640  0.3719
   83SOL    HW2  262   0.496   1.938   0.633 -0.3468  0.8203  1.1035
   84SOL     OW  263   2.508   0.961   1.939  0.3292  0.3006  0.1351
   84SOL    HW1  264   2.497   0.938   1.847 -0.0877  0.5957  0.1096
   84SOL    HW2  265   2.507   1.057   1.940 -1.2909  0.3054  0.6238
   85SOL     OW  266   1.167   0.304   0.316 -0.9696  0.0407 -0.1198
   85SOL    HW1  267   1.237   0.330   0.256  0.3507 -0.8120  0.9890
   85SOL    HW2  268   1.128   0.226   0.276 -0.2083 -0.4208  0.0050
   86SOL     OW  269   3.257   1.651   1.155  0.0280 -0.2123  0.4347
   86SOL    HW1  270   3.296   1.617   1.075  1.9757  1.7678  0.4440
   86SOL    HW2  271   3.280   1.587   1.222 -0.2387 -1.0729 -0.2758
   87SOL     OW  272   1.496   0.506   1.012  0.3384 -0.7080 -0.3364
   87SOL    HW1  273   1.414   0.461   1.033 -1.8984  3.2765  0.5287
   87SOL    HW2  274   1.520   0.551   1.093  0.5515  2.1289 -1.8537
   88SOL     OW  275   3.322   0.310   0.849 -0.1277  0.1455 -0.5972
   88SOL    HW1  276   3.295   0.294   0.759  0.5554 -0.5327 -0.7008
   88SOL    HW2  277   3.305   0.403   0.864  0.0627  0.3377 -1.5312
   89SOL     OW  278   0.652   1.428   0.206 -0.0303  0.5868 -0.3809
   89SOL    HW1  279   0.640   1.439   0.112 -0.5956  0.4334 -0.3306
   89SOL    HW2  280   0.591   1.491   0.245 -1.0628 -0.5589 -0.1098
   90SOL     OW  281   1.452   0.206   0.074 -0.6117 -0.1378  0.1654
   90SOL    HW1  282   1.487   0.275   0.130  2.1198 -0.3476 -1.1341
   90SOL    HW2  283   1.517   0.136   0.078 -2.6698 -2.1672  0.4173
   91SOL     OW  284   0.709   1.625   0.818 -0.4504 -0.0407 -0.5616
   91SOL    HW1  285   0.766   1.548   0.816  0.5030  0.6449 -2.0935
   91SOL    HW2  286   0.765   1.697   0.790 -1.5835  1.0289 -0.1748
   92SOL     OW  287   0.392   1.625   0.165 -0.3452  0.3616  0.4600
   92SOL    HW1  288   0.393   1.655   0.074  1.2155 -1.0368 -0.0341
   92SOL    HW2  289   0.434   1.696   0.214  0.8726  0.1711 -0.2747
   93SOL     OW  290   2.606   1.573   0.111  0.4645  0.3658  0.6737
   93SOL    HW1  291   2.634   1.625   0.187  0.8867  0.7932  0.2322
   93SOL    HW2  292   2.688   1.539   0.074  0.3156  0.7093  0.0216
   94SOL     OW  293   2.907   0.425   0.168 -0.7684 -0.2015  0.1077
   94SOL    HW1  294   2.892   0.447   0.076 -0.9201 -0.0070  0.1803
   94SOL    HW2  295   2.891   0.506   0.216 -3.3779 -0.9294  0.6060
   95SOL     OW  296   3.064   2.289   1.215 -0.4421 -0.6390  0.3652
   95SOL    HW1  297   3.073   2.256   1.304  0.4598 -0.6884  0.2633
   95SOL    HW2  298   2.975   2.265   1.189 -0.3443 -1.5669  0.8636
   96SOL     OW  299   1.926   2.151   0.331  0.7628  0.0557  0.3224
   96SOL    HW1  300   1.988   2.174   0.262  1.0066 -1.8375 -0.1524
   96SOL    HW2  301   1.957   2.067   0.363 -1.5379 -0.9552  0.0694
   97SOL     OW  302   1.926   0.817   0.914  0.5925  0.4157  0.0178
   97SOL    HW1  303   1.872   0.845   0.988  0.3690 -1.0941  0.4660
   97SOL    HW2  304   2.012   0.800   0.953  0.4565 -0.4498 -0.0548
   98SOL     OW  305   2.496   2.317   0.587  0.8826  0.4594  0.3190
   98SOL    HW1  306   2.490   2.412   0.594 -0.8554  0.3572  0.7120
   98SOL    HW2  307   2.418   2.285   0.632  0.9100 -1.1165 -0.6775
   99SOL     OW  308   2.607   0.119   1.280  0.0724 -0.3281  0.3370
   99SOL    HW1  309   2.528   0.112   1.333  0.5156  0.2153  1.1011
   99SOL    HW2  310   2.677   0.089   1.338  0.5327 -0.0059 -0.0471
  100SOL     OW  311   1.810   0.184   0.962  0.5173  0.0561 -0.0585
  100SOL    HW1  312   1.864   0.188   0.883 -0.1882 -1.4065 -0.6512
  100SOL    HW2  313   1.733   0.134   0.936  0.2726 -0.4669  1.5602
  101SOL     OW  314   2.721   1.009   0.332  0.1096 -0.7414 -0.5508
  101SOL    HW1  315   2.661   1.034   0.403 -0.2241  1.2937 -1.4779
  101SOL    HW2  316   2.751   0.921   0.356  0.3889  0.0461  2.3447
  102SOL     OW  317   3.316   0.137   1.567 -0.2606  1.1568  0.1453
  102SOL    HW1  318   3.339   0.170   1.480 -0.8755 -0.8573 -0.8597
  102SOL    HW2  319   3.390   0.080   1.591 -0.8185  0.4609  0.2264
  103SOL     OW  320   2.208   0.514   1.663 -0.6247  0.2411 -0.5197
  103SOL    HW1  321   2.186   0.572   1.736 -0.0254 -0.6206  0.3707
  103SOL    HW2  322   2.242   0.572   1.595 -0.3993  0.9675  0.2039
  104SOL     OW  323   1.105   2.015   0.041 -0.5362 -0.0155 -0.1475
  104SOL    HW1  324   1.043   2.080   0.073 -1.7790 -1.0044 -0.4985
  104SOL    HW2  325   1.104   1.946   0.107  0.6900  0.2304  0.1632
  105SOL     OW  326   2.981   1.671   1.513 -0.5533 -0.2021 -0.2836
  105SOL    HW1  327   2.900   1.623   1.498 -2.9512  2.4910  2.5100
  105SOL    HW2  328   2.978   1.744   1.451 -0.9755  0.5931  0.6408
  106SOL     OW  329   0.398   0.794   0.139  0.6990 -0.2858 -0.3703
  106SOL    HW1  330   0.364   0.719   0.090 -0.4553  0.7589 -1.2451
  106SOL    HW2  331   0.461   0.835   0.080  1.3569 -0.5653  0.1205
  107SOL     OW  332   2.105   1.856   1.570  0.1240 -0.1635  0.7417
  107SOL    HW1  333   2.046   1.819   1.635  0.4508  1.7048  2.1847
  107SOL    HW2  334   2.150   1.780   1.532 -1.9345 -1.4897  0.8064
  108SOL     OW  335   1.280   2.097   0.510 -0.8995 -0.4684  0.0354
  108SOL    HW1  336   1.300   2.182   0.469  0.1178 -0.9756 -0.5703
  108SOL    HW2  337   1.325   2.033   0.455 -3.1576 -1.6152 -0.6120
  109SOL     OW  338   0.664   1.197   0.491 -0.6008  0.0554  0.1834
  109SOL    HW1  339   0.670   1.203   0.586 -1.4088  1.7509  0.1548
  109SOL    HW2  340   0.576   1.165   0.474 -0.0195 -1.5678 -0.0041
  110SOL     OW  341   3.512   2.340   1.184 -0.2475  0.2061  0.0113
  110SOL    HW1  342   3.525   2.254   1.222 -0.9063  0.5725  1.1177
  110SOL    HW2  343   3.482   2.322   1.094  4.0838 -0.6621 -1.5006
  111SOL     OW  344   3.436   2.184   1.641 -0.5355  0.1611  0.0377
  111SOL    HW1  345   3.482   2.215   1.720  0.3363  0.1410 -0.4470
  111SOL    HW2  346   3.466   2.094   1.630  1.0806  0.8205 -1.5269
  112SOL     OW  347   2.871   2.487   1.647 -0.0254  0.1591 -0.4220
  112SOL    HW1  348   2.941   2.423   1.662 -0.2581 -0.0015  0.0189
  112SOL    HW2  349   2.840   2.468   1.559 -0.9670 -1.2248  0.1627
  113SOL     OW  350   2.602   2.006   0.470 -0.1770  0.2203 -0.5150
  113SOL    HW1  351   2.509   2.018   0.454 -0.2346 -0.8879 -1.1010
  113SOL    HW2  352   2.626   2.079   0.527 -1.4874  0.3027 -0.0310
  114SOL     OW  353   1.150   2.048   1.112  0.2767 -0.0011  0.5443
  114SOL    HW1  354   1.106   1.973   1.151 -0.3313 -0.7360 -1.4376
  114SOL    HW2  355   1.212   2.011   1.050  0.3726  1.1011 -0.0617
  115SOL     OW  356   3.872   0.081   1.707  0.1969  0.1503 -0.4499
  115SOL    HW1  357   3.843   0.022   1.638  1.2715 -0.3033 -0.5345
  115SOL    HW2  358   3.948   0.037   1.746 -1.2386 -0.3408  2.0284
  116SOL     OW  359   3.598   1.701   1.402  0.1324 -0.0427 -0.2136
  116SOL    HW1  360   3.667   1.650   1.359  0.1402 -0.7679  0.6227
  116SOL    HW2  361   3.533   1.636   1.429 -0.5525  0.5581 -0.3840
  117SOL     OW  362   0.279   1.385   0.275  0.1969 -0.3854 -0.1514
  117SOL    HW1  363   0.299   1.470   0.236  0.2539  0.4715  1.6273
  117SOL    HW2  364   0.213   1.347   0.218  0.4196  0.6997 -1.1689
  118SOL     OW  365   2.097   1.292   1.683 -0.0921  0.0672  0.1031
  118SOL    HW1  366   2.022   1.290   1.623  0.1445 -0.0643 -0.1889
  118SOL    HW2  367   2.085   1.215   1.739  0.0551 -0.1964 -0.2249
  119SOL     OW  368   1.981   1.052   1.094  0.6778  0.2503 -0.0898
  119SOL    HW1  369   1.926   1.056   1.016 -0.1257 -1.5060  0.3232
  119SOL    HW2  370   1.919   1.046   1.167  1.3944 -0.3630  0.4884
  120SOL     OW  371   3.384   0.561   0.864 -1.0519 -0.2590 -0.1074
  120SOL    HW1  372   3.465   0.595   0.826 -1.2769  1.3510  0.7684
  120SOL    HW2  373   3.315   0.602   0.812 -1.3932 -2.6198 -1.7129
  121SOL     OW  374   3.280   0.888   1.506  0.7432 -0.5250  0.5781
  121SOL    HW1  375   3.329   0.970   1.510  1.4476 -0.7667 -1.6737
  121SOL    HW2  376   3.188   0.914   1.513  0.9941  0.3939  0.5241
  122SOL     OW  377   2.016   2.657   1.757  0.1862  0.2411 -0.4028
  122SOL    HW1  378   1.920   2.655   1.753  0.1479  1.0836 -0.1267
  122SOL    HW2  379   2.042   2.565   1.754 -0.6986 -0.0807  0.8789
  123SOL     OW  380   1.758   2.354   1.705 -0.2582 -0.5538 -0.0430
  123SOL    HW1  381   1.816   2.329   1.632 -0.2489 -1.3201  0.2174
  123SOL    HW2  382   1.707   2.275   1.723  1.1159 -1.0471  2.0676
  124SOL     OW  383   2.271   0.265   0.048  0.3093 -0.2711  0.4427
  124SOL    HW1  384   2.355   0.258   0.093  0.4215 -1.5266  0.0851
  124SOL    HW2  385   2.267   0.187  -0.007  0.3634  1.3774 -2.0585
  125SOL     OW  386   2.888   2.093   1.304 -0.3669  0.5312  0.0160
  125SOL    HW1  387   2.815   2.039   1.334  1.0750 -0.7380  1.4297
  125SOL    HW2  388   2.937   2.037   1.244 -0.5818  1.3905 -0.9788
  126SOL     OW  389   1.043   2.172   1.436  0.1257 -0.1877  0.3135
  126SOL    HW1  390   0.978   2.131   1.380 -0.5919 -1.0627  1.7443
  126SOL    HW2  391   1.115   2.109   1.440  0.0585 -0.2465  0.5991
  127SOL     OW  392   1.238   2.809   0.849  0.2750 -0.3636 -0.0745
  127SOL    HW1  393   1.192   2.766   0.921  1.4074 -0.7039  0.4600
  127SOL    HW2  394   1.170   2.861   0.806 -0.9785 -2.0597 -0.2718
  128SOL     OW  395   0.793   2.029   0.398 -0.0933  0.3264 -0.3533
  128SOL    HW1  396   0.742   2.035   0.479 -0.4777  0.8403 -0.6261
  128SOL    HW2  397   0.881   2.057   0.423 -0.2564  0.6633 -0.1526
  129SOL     OW  398   1.771   0.156   1.237 -0.1048 -0.4858 -0.1511
  129SOL    HW1  399   1.690   0.106   1.239 -1.2072  1.1784 -1.1402
  129SOL    HW2  400   1.789   0.169   1.144  0.6515  0.1447  0.0697
  130SOL     OW  401   2.036   1.884   1.192 -0.2160  0.7692  0.7737
  130SOL    HW1  402   2.059   1.973   1.165  0.2718  0.6433  0.7649
  130SOL    HW2  403   1.940   1.882   1.190 -0.2432  0.4080 -2.2094
  131SOL     OW  404   3.890   1.738   1.846 -0.1132 -0.2419  0.3064
  131SOL    HW1  405   3.843   1.740   1.929  0.8634  0.6193  0.8578
  131SOL    HW2  406   3.956   1.670   1.857 -0.0926 -0.2443  0.1691
  132SOL     OW  407   1.550   1.475   0.065 -0.5186 -0.2334 -0.7144
  132SOL    HW1  408   1.497   1.448  -0.010 -0.9256 -0.0081 -0.5152
  132SOL    HW2  409   1.578   1.564   0.044 -2.3820  0.6614  0.2868
  133SOL     OW  410   1.969   0.355   1.204 -0.4049 -0.2398 -0.3272
  133SOL    HW1  411   1.905   0.284   1.208 -0.7290 -0.0965  5.2874
  133SOL    HW2  412   1.917   0.434   1.191 -1.0110 -0.4242  0.8699
  134SOL     OW  413   1.902   0.190   0.681 -0.0538 -0.0491 -0.3513
  134SOL    HW1  414   1.973   0.126   0.681  1.4661  1.5430 -0.9425
  134SOL    HW2  415   1.868   0.186   0.591 -0.9953 -1.0585  0.0261
  135SOL     OW  416   3.609   2.110   1.280 -0.5960  0.1118  0.2370
  135SOL    HW1  417   3.581   2.042   1.218  0.6089 -0.5644  0.4006
  135SOL    HW2  418   3.586   2.075   1.366  1.4652 -0.8530  0.4367
  136SOL     OW  419   0.373   0.481   0.226  0.5757 -0.2333  0.2611
  136SOL    HW1  420   0.288   0.485   0.183  0.3395 -0.9058  0.6638
  136SOL    HW2  421   0.382   0.566   0.270  0.0435 -0.2320  0.3642
  137SOL     OW  422   2.340   2.124   0.401  0.2856  0.1582  0.1541
  137SOL    HW1  423   2.321   2.155   0.489  0.5051  1.1111 -0.1216
  137SOL    HW2  424   2.288   2.181   0.344 -1.8372 -1.9905 -0.2621
  138SOL     OW  425   2.256   1.582   0.217  0.0085 -0.1076  0.5163
  138SOL    HW1  426   2.287   1.671   0.230  1.5997 -0.6250  0.4042
  138SOL    HW2  427   2.165   1.593   0.189  0.4696  1.5269 -0.4860
  139SOL     OW  428   1.215   0.844   1.319 -0.0554 -0.4503 -0.3311
  139SOL    HW1  429   1.209   0.765   1.373  1.9177 -0.9175 -0.7404
  139SOL    HW2  430   1.207   0.813   1.229  2.2896 -0.4507 -0.5961
  140SOL     OW  431   2.049   0.907   1.682 -0.1618  0.2953  0.2733
  140SOL    HW1  432   1.981   0.840   1.687  0.2498 -0.2066 -0.6655
  140SOL    HW2  433   2.116   0.869   1.625  2.1049 -0.3003  3.0655
  141SOL     OW  434   1.497   1.874   1.337  0.5803 -0.1647 -0.1478
  141SOL    HW1  435   1.550   1.804   1.299  1.1362  0.3714 -0.3861
  141SOL    HW2  436   1.557   1.949   1.343  1.0268 -0.6376  3.3286
  142SOL     OW  437   2.525   1.369   1.639 -0.0053 -0.2087  0.0535
  142SOL    HW1  438   2.574   1.442   1.602  2.0468 -1.7354 -0.4556
  142SOL    HW2  439   2.592   1.310   1.674 -1.6538 -1.0252  2.0971
  143SOL     OW  440   3.132   0.413   0.670 -1.1375 -0.5568 -0.4718
  143SOL    HW1  441   3.189   0.348   0.630  1.2204  0.7224  0.6080
  143SOL    HW2  442   3.056   0.363   0.700 -0.3881 -2.4263 -1.5237
  144SOL     OW  443   2.413   0.668   0.600 -0.1639  0.2931 -0.2844
  144SOL    HW1  444   2.474   0.657   0.673  0.9774 -0.2510 -1.2812
  144SOL    HW2  445   2.328   0.683   0.641  0.6964  1.4539  1.1511
  145SOL     OW  446   0.879   2.052   0.872  0.0379  0.0771  0.2141
  145SOL    HW1  447   0.883   1.985   0.940 -1.7508 -0.1581  0.1310
  145SOL    HW2  448   0.881   2.002   0.790  0.7111  0.2760  0.0981
  146SOL     OW  449   3.609   0.731   1.679  0.3996 -0.3486  0.4164
  146SOL    HW1  450   3.611   0.636   1.690 -0.8470 -0.6085 -1.1837
  146SOL    HW2  451   3.670   0.748   1.606 -0.8342 -0.1823 -0.6100
  147SOL     OW  452   1.915   2.048   1.518  0.1754  0.0682  0.3060
  147SOL    HW1  453   1.894   2.037   1.611 -0.6283 -1.2921 -0.0085
  147SOL    HW2  454   1.977   1.978   1.499 -0.9423 -0.7315 -0.5442
  148SOL     OW  455   0.642   0.040   0.114  0.2393  0.4167  0.4109
  148SOL    HW1  456   0.637  -0.055   0.112 -2.2331  0.4732  1.2144
  148SOL    HW2  457   0.600   0.068   0.033 -1.1503  0.8345  1.2537
  149SOL     OW  458   1.189   2.766   1.407  0.4011  0.2728 -0.1544
  149SOL    HW1  459   1.246   2.730   1.475 -1.4241 -1.9812  0.2974
  149SOL    HW2  460   1.184   2.697   1.341  0.0298  1.3661 -1.3118
  150SOL     OW  461   1.354   2.451   1.348  0.1622  0.2226 -0.1179
  150SOL    HW1  462   1.342   2.358   1.366  1.1445  0.4687  1.9791
  150SOL    HW2  463   1.315   2.463   1.261  0.6300 -2.2568 -0.7460
  151SOL     OW  464   0.806   2.394   0.882  0.0062 -0.1247  0.0926
  151SOL    HW1  465   0.861   2.349   0.946  2.6344 -0.9836 -2.5189
  151SOL    HW2  466   0.742   2.328   0.856  1.0050 -0.9319 -0.4430
  152SOL     OW  467   0.833   0.961   0.510 -0.0860  0.4336 -0.6155
  152SOL    HW1  468   0.783   1.041   0.491 -1.2557  0.1663  1.1398
  152SOL    HW2  469   0.768   0.891   0.507  0.8196 -0.3992 -1.5172
  153SOL     OW  470   3.781   1.017   1.574  0.1483 -0.2953 -0.4124
  153SOL    HW1  471   3.871   1.045   1.564  0.5061 -1.1934  0.1227
  153SOL    HW2  472   3.760   0.972   1.492 -0.6106  1.8895 -1.5047
  154SOL     OW  473   2.672   0.761   0.503 -0.3638 -0.4608 -0.0385
  154SOL    HW1  474   2.621   0.686   0.531  0.3684 -0.8464  0.2981
  154SOL    HW2  475   2.663   0.825   0.574 -0.1451 -0.6429  0.1546
  155SOL     OW  476   2.181   1.686   1.352  0.1514  0.1241 -0.3470
  155SOL    HW1  477   2.256   1.642   1.312 -0.4624 -1.4046  0.1110
  155SOL    HW2  478   2.144   1.740   1.281  1.4533  0.6205 -0.6654
  156SOL     OW  479   3.853   1.328   1.928 -0.1152  0.3789 -0.1037
  156SOL    HW1  480   3.780   1.277   1.894  0.8559 -0.5886 -0.8071
  156SOL    HW2  481   3.816   1.415   1.945 -1.1816  0.2221 -1.4697
  157SOL     OW  482   0.506   0.539   0.477  0.2685 -0.1858 -0.3181
  157SOL    HW1  483   0.488   0.446   0.461  2.6818 -0.3573 -2.7610
  157SOL    HW2  484   0.454   0.561   0.554 -1.1751 -3.2861 -0.2805
  158SOL     OW  485   2.398   2.556   1.646  0.3680 -0.2428 -0.1041
  158SOL    HW1  486   2.455   2.566   1.570 -0.4152 -0.8597 -0.7968
  158SOL    HW2  487   2.430   2.619   1.709 -0.0538  1.5748 -1.6095
  159SOL     OW  488   2.790   1.419   0.397 -0.3597 -0.2607 -1.1494
  159SOL    HW1  489   2.868   1.410   0.451  0.2743 -0.0906 -2.0262
  159SOL    HW2  490   2.804   1.499   0.347 -0.4321 -0.9803 -2.3744
  160SOL     OW  491   1.387   2.229   1.156 -0.0061  0.6899  0.0095
  160SOL    HW1  492   1.338   2.154   1.123  2.5470 -0.5981 -1.0987
  160SOL    HW2  493   1.384   2.219   1.252 -0.2400 -0.4402 -0.1050
  161SOL     OW  494   1.899   1.109   1.542  0.2591  0.3903 -0.2217
  161SOL    HW1  495   1.931   1.037   1.597 -1.5269 -0.4865 -0.2646
  161SOL    HW2  496   1.976   1.138   1.493  1.1745 -1.0028  0.3303
  162SOL     OW  497   0.889   1.384   0.776  0.5897 -0.2017 -0.3799
  162SOL    HW1  498   0.915   1.382   0.869 -2.0966  0.8781  0.4887
  162SOL    HW2  499   0.825   1.313   0.769 -0.9465  1.1675 -0.7760
  163SOL     OW  500   0.125   0.709   0.043 -0.1374 -0.0329 -0.2880
  163SOL    HW1  501   0.097   0.801   0.041 -1.4901 -0.4397 -2.2335
  163SOL    HW2  502   0.061   0.663  -0.011  0.2720 -2.2220  0.9781
  164SOL     OW  503   2.151   1.273   1.140 -1.0843 -0.4109  0.6102
  164SOL    HW1  504   2.098   1.329   1.083 -1.4412 -0.8419  0.5176
  164SOL    HW2  505   2.136   1.184   1.108  1.8592 -0.3778 -1.2337
  165SOL     OW  506   1.614   2.683   1.366  0.0896 -0.9261 -0.1318
  165SOL    HW1  507   1.567   2.760   1.333 -0.2981 -1.0217  0.1889
  165SOL    HW2  508   1.654   2.645   1.288 -1.1168 -1.3610 -0.5662
  166SOL     OW  509   2.364   1.520   0.791 -0.9562 -0.9178  0.2286
  166SOL    HW1  510   2.349   1.426   0.796 -1.6147 -0.8431 -0.2807
  166SOL    HW2  511   2.276   1.558   0.783 -0.7922 -0.1817  1.5914
  167SOL     OW  512   1.138   2.428   0.454 -0.0364  0.1365  0.7145
  167SOL    HW1  513   1.173   2.515   0.476  0.1752  0.3003 -0.2138
  167SOL    HW2  514   1.211   2.383   0.411 -0.6741  0.1505 -0.4193
  168SOL     OW  515   1.945   2.579   1.015  0.2629  0.3314  0.1575
  168SOL    HW1  516   1.921   2.505   0.959  0.4323 -0.1725  0.7313
  168SOL    HW2  517   2.015   2.545   1.071 -0.3962  0.5851  1.1644
  169SOL     OW  518   2.059   0.048   1.159 -0.1120  0.1089 -0.5153
  169SOL    HW1  519   1.983   0.095   1.194  0.1378  0.7560 -0.8227
  169SOL    HW2  520   2.026   0.006   1.079  0.4103  2.4387 -2.0625
  170SOL     OW  521   2.670   0.213   0.844 -0.3904  0.7011  0.6572
  170SOL    HW1  522   2.610   0.223   0.770  0.2181 -0.7351 -0.0853
  170SOL    HW2  523   2.652   0.124   0.877  1.7121 -0.0248  0.0109
  171SOL     OW  524   3.210   1.276   0.854  0.2913  0.0615 -0.5022
  171SOL    HW1  525   3.151   1.251   0.784  0.3032 -1.1271 -0.1048
  171SOL    HW2  526   3.214   1.372   0.850 -1.5182  0.1474 -0.6413
  172SOL     OW  527   2.319   0.655   0.337 -0.1157 -0.1713  0.0418
  172SOL    HW1  528   2.365   0.652   0.421  0.2464  0.0775 -0.1424
  172SOL    HW2  529   2.236   0.610   0.353 -0.2667  0.3068  0.6704
  173SOL     OW  530   3.268   0.495   1.645  1.0335  0.5277 -0.4154
  173SOL    HW1  531   3.326   0.454   1.710  0.8537 -0.8409 -1.0719
  173SOL    HW2  532   3.312   0.479   1.561  1.0612  1.9154 -0.6893
  174SOL     OW  533   3.057   1.613   1.753 -0.4091 -0.1074  0.9806
  174SOL    HW1  534   3.032   1.633   1.663  3.1937  0.1513 -0.1311
  174SOL    HW2  535   3.001   1.669   1.806 -2.8454 -0.4741 -1.0144
  175SOL     OW  536   3.394   0.678   1.368 -0.2166  0.2913 -0.2915
  175SOL    HW1  537   3.351   0.696   1.284 -0.5639 -0.1725 -0.2187
  175SOL    HW2  538   3.343   0.729   1.432 -0.4505  0.0062 -0.2511
  176SOL     OW  539   1.206   0.085   0.104 -0.0046 -0.6841 -0.2588
  176SOL    HW1  540   1.205   0.008   0.047 -0.3905 -0.6522 -0.2986
  176SOL    HW2  541   1.286   0.131   0.081 -0.3619 -0.4558 -1.0678
  177SOL     OW  542   1.701   1.721   1.279 -0.8589 -0.4683  0.4888
  177SOL    HW1  543   1.761   1.647   1.282 -1.5791 -1.1069 -0.3182
  177SOL    HW2  544   1.751   1.792   1.239 -1.9745 -2.4585 -5.4138
  178SOL     OW  545   2.278   0.277   1.837  0.3923  0.1363  0.3295
  178SOL    HW1  546   2.248   0.250   1.750 -1.8166  1.7421  0.5085
  178SOL    HW2  547   2.272   0.372   1.837  0.5059  0.1887  2.1665
  179SOL     OW  548   2.729   1.603   1.603 -0.4687  0.4975  0.0722
  179SOL    HW1  549   2.730   1.651   1.686 -1.9588  1.4417 -0.4247
  179SOL    HW2  550   2.660   1.645   1.552  0.8609  0.3756 -1.9236
  180SOL     OW  551   2.488   0.539   1.777 -0.1050  0.2211  0.3580
  180SOL    HW1  552   2.501   0.570   1.866 -0.6988 -1.2075  0.9681
  180SOL    HW2  553   2.393   0.533   1.766 -0.0757  1.1779 -0.6776
  181SOL     OW  554   3.185   2.319   1.531  0.7531 -0.0218 -0.4239
  181SOL    HW1  555   3.144   2.313   1.618 -1.1414 -3.3813 -1.3582
  181SOL    HW2  556   3.279   2.318   1.549  0.4250 -1.4405  1.6542
  182SOL     OW  557   2.254   2.286   1.700  0.6551 -0.1467  0.0416
  182SOL    HW1  558   2.292   2.222   1.760  0.1176 -1.0520 -0.5689
  182SOL    HW2  559   2.325   2.348   1.684  0.9785 -0.1977  1.1661
  183SOL     OW  560   2.946   2.568   1.179 -0.1032 -0.1569 -0.4495
  183SOL    HW1  561   2.956   2.533   1.267  1.0171 -1.1761 -0.9405
  183SOL    HW2  562   2.946   2.491   1.122  0.3367  0.5199 -1.4102
  184SOL     OW  563   2.441   0.603   0.078  0.0988  0.3728 -0.3012
  184SOL    HW1  564   2.400   0.647   0.152  2.0257  0.4898  0.7626
  184SOL    HW2  565   2.413   0.512   0.086  0.1046  0.4288  0.4399
  185SOL     OW  566   4.080   1.017   1.989 -0.1759 -0.6016 -0.0551
  185SOL    HW1  567   4.000   1.001   2.040 -0.5284 -1.0979 -0.7529
  185SOL    HW2  568   4.049   1.035   1.900  0.4659 -0.2764 -0.2186
  186SOL     OW  569   0.348   2.616   0.399 -0.0021  0.1593 -0.0667
  186SOL    HW1  570   0.424   2.575   0.358  0.5789 -0.0374  1.1707
  186SOL    HW2  571   0.329   2.562   0.475 -1.9175 -0.2650 -0.7977
  187SOL     OW  572   2.560   2.202   0.224  0.2442 -0.2788 -0.0128
  187SOL    HW1  573   2.629   2.232   0.283  0.0744 -0.3542  0.2272
  187SOL    HW2  574   2.485   2.188   0.281 -0.3517  1.0128 -0.4513
  188SOL     OW  575   2.879   2.790   1.050  0.3566  0.2399 -0.2272
  188SOL    HW1  576   2.914   2.710   1.090  0.1020  0.4462  0.4158
  188SOL    HW2  577   2.902   2.859   1.112 -2.7062  0.1782  1.1355
  189SOL     OW  578   0.943   1.683   0.450 -0.7962 -0.7757  0.1631
  189SOL    HW1  579   0.972   1.714   0.363 -1.3127  0.6397  0.4597
  189SOL    HW2  580   0.849   1.672   0.441 -0.7993 -0.9759  0.4461
  190SOL     OW  581   4.088   1.603   1.927 -0.3326 -0.0371 -0.0207
  190SOL    HW1  582   4.144   1.571   1.998  1.4317 -1.2404 -1.8699
  190SOL    HW2  583   4.118   1.557   1.849 -2.1769  1.2632 -1.6100
  191SOL     OW  584   1.286   1.401   0.724 -0.7939  0.3001 -0.4084
  191SOL    HW1  585   1.223   1.416   0.654 -1.3822  0.7212  0.1978
  191SOL    HW2  586   1.332   1.484   0.734  0.4647 -0.2338 -1.4049
  192SOL     OW  587   2.174   1.439   0.451  0.2224 -0.4753 -0.3203
  192SOL    HW1  588   2.248   1.500   0.458  1.0450 -1.3247 -1.2781
  192SOL    HW2  589   2.153   1.438   0.358 -0.0254 -1.3703 -0.2598
  193SOL     OW  590   0.448   0.965   0.508  0.2242  0.0605 -0.0883
  193SOL    HW1  591   0.488   0.891   0.463 -2.8205 -0.5922 -1.9842
  193SOL    HW2  592   0.384   0.926   0.567 -1.7377  1.0789 -1.4319
  194SOL     OW  593   3.368   1.688   1.661 -0.2996 -0.6211  0.2038
  194SOL    HW1  594   3.293   1.713   1.607  1.5165  0.1382 -2.1780
  194SOL    HW2  595   3.384   1.763   1.717 -1.8572 -1.1831  1.4794
  195SOL     OW  596   1.111   1.158   0.811 -0.1546 -0.1252  0.3590
  195SOL    HW1  597   1.151   1.240   0.782  1.1093 -1.5246 -2.1694
  195SOL    HW2  598   1.129   1.096   0.740  1.0809 -3.2911  3.1977
  196SOL     OW  599   0.925   1.446   0.130  0.1770 -0.3440  0.2349
  196SOL    HW1  600   0.930   1.378   0.063  2.4678 -0.9550  0.9331
  196SOL    HW2  601   0.836   1.438   0.165  0.2503 -2.8193  0.0828
  197SOL     OW  602   1.775   1.958   1.109  0.5322 -0.5228  0.3275
  197SOL    HW1  603   1.821   2.018   1.051 -0.7335 -0.8042 -1.0111
  197SOL    HW2  604   1.745   2.012   1.181  1.6329 -0.0646  0.4655
  198SOL     OW  605   2.656   2.679   0.743  1.1687  0.1039 -0.1895
  198SOL    HW1  606   2.569   2.656   0.709  1.2053 -3.2876  1.5647
  198SOL    HW2  607   2.639   2.723   0.826  1.1361  0.5116 -0.4102
  199SOL     OW  608   1.836   1.532   1.487  0.2043  0.3080  0.4732
  199SOL    HW1  609   1.785   1.459   1.523 -0.7068  0.7158  0.0548
  199SOL    HW2  610   1.843   1.595   1.559 -0.3674  0.4921  0.3695
  200SOL     OW  611   3.592   1.955   1.516  0.0876  1.2719  0.1998
  200SOL    HW1  612   3.602   1.935   1.609 -0.6349  2.6643  0.5974
  200SOL    HW2  613   3.587   1.869   1.474 -0.2968  0.6153  1.5277
  201SOL     OW  614   1.949   1.503   1.233 -0.2350 -0.1980  0.2668
  201SOL    HW1  615   1.936   1.409   1.231  1.3379 -0.4342  0.1883
  201SOL    HW2  616   1.937   1.527   1.325 -0.3937 -0.5160  0.3294
  202SOL     OW  617   1.400   2.608   0.133 -0.0523 -0.3816 -0.3234
  202SOL    HW1  618   1.338   2.609   0.060 -0.1882  0.6965 -0.2047
  202SOL    HW2  619   1.444   2.523   0.126 -1.6676 -1.2618 -0.3041
  203SOL     OW  620   1.810   0.592   1.862  0.0441 -0.8811  0.0812
  203SOL    HW1  621   1.819   0.498   1.849 -1.6367 -1.1650  0.6437
  203SOL    HW2  622   1.761   0.600   1.944  0.4566  0.4898  0.2148
  204SOL     OW  623   2.325   2.627   1.979  0.4160  0.1067 -0.1227
  204SOL    HW1  624   2.330   2.531   1.984  2.5547  0.2124  1.1722
  204SOL    HW2  625   2.409   2.653   1.940  0.3611  1.5085  0.6458
  205SOL     OW  626   3.134   0.577   1.965  0.2111 -0.1892 -0.4564
  205SOL    HW1  627   3.080   0.649   1.998 -1.4084 -1.2624 -0.6283
  205SOL    HW2  628   3.187   0.617   1.896 -1.3975  0.6553 -1.2758
  206SOL     OW  629   0.887   2.412   0.357 -0.4722  0.1461  0.5175
  206SOL    HW1  630   0.979   2.424   0.381 -0.4490  0.3916  0.3081
  206SOL    HW2  631   0.848   2.368   0.432  0.0331 -0.8232  0.2387
  207SOL     OW  632   1.297   1.421   1.622  0.3369  0.3654 -0.0910
  207SOL    HW1  633   1.308   1.394   1.531  1.3398  1.0617 -0.1977
  207SOL    HW2  634   1.202   1.421   1.636  0.1881 -0.0726 -1.0280
  208SOL     OW  635   2.533   0.236   0.193 -0.3577 -0.2037 -0.4035
  208SOL    HW1  636   2.542   0.294   0.269  0.5122  0.0087 -0.6488
  208SOL    HW2  637   2.613   0.184   0.193 -0.1058  0.1399 -1.4342
  209SOL     OW  638   1.597   0.681   0.104  0.5329  0.0177 -0.3536
  209SOL    HW1  639   1.688   0.699   0.078  0.5372 -2.0821 -2.1085
  209SOL    HW2  640   1.568   0.761   0.147  2.8730  1.1526 -0.7277
  210SOL     OW  641   1.718   1.010   0.569 -0.3537 -0.3538 -0.3646
  210SOL    HW1  642   1.665   0.930   0.561  0.2287 -0.7256 -0.5304
  210SOL    HW2  643   1.666   1.077   0.525 -0.7660 -0.6782 -0.3832
  211SOL     OW  644   2.435   1.264   0.340 -0.1050  0.1755  0.0295
  211SOL    HW1  645   2.436   1.348   0.387  1.0226 -0.0849  0.5022
  211SOL    HW2  646   2.473   1.202   0.402 -2.1497 -0.9907  0.1922
  212SOL     OW  647   2.942   0.403   1.692  0.5570 -0.5094  0.2664
  212SOL    HW1  648   2.895   0.483   1.716 -0.9155 -1.5163  0.9144
  212SOL    HW2  649   2.976   0.420   1.605  0.4589  0.8959  0.4789
  213SOL     OW  650   1.797   2.448   1.961 -0.0552  0.4460  0.4131
  213SOL    HW1  651   1.888   2.458   1.988  0.2255 -0.7431 -0.0232
  213SOL    HW2  652   1.801   2.436   1.866 -0.6688  0.4753  0.3762
  214SOL     OW  653   0.743   0.397   0.256 -0.0739  0.3197  0.2895
  214SOL    HW1  654   0.803   0.339   0.209 -1.9758 -0.1063 -1.7794
  214SOL    HW2  655   0.698   0.340   0.318  0.6784  0.3682  0.8896
  215SOL     OW  656   1.795   0.789   1.669 -0.2982 -0.2207  0.5434
  215SOL    HW1  657   1.761   0.864   1.718  2.1735  0.0318  2.0315
  215SOL    HW2  658   1.825   0.728   1.736  2.0927 -0.4095 -0.5791
  216SOL     OW  659   3.206   2.016   1.094 -0.1582 -0.2274  0.0713
  216SOL    HW1  660   3.167   1.943   1.046  0.6180 -0.3398 -0.4033
  216SOL    HW2  661   3.173   2.094   1.049  0.3198 -0.3266 -0.4689
  217SOL     OW  662   0.638   1.125   0.014 -1.0001  1.0240  0.2559
  217SOL    HW1  663   0.697   1.083   0.077 -2.5105 -0.7084  0.6135
  217SOL    HW2  664   0.691   1.194  -0.026  1.7367 -1.2684 -0.4432
  218SOL     OW  665   2.829   2.024   1.772 -0.1313  0.4017 -0.2292
  218SOL    HW1  666   2.924   2.010   1.768 -0.0925 -0.6934  2.5440
  218SOL    HW2  667   2.819   2.098   1.832 -1.0579  0.2739 -0.2226
  219SOL     OW  668   1.784   0.295   1.895  0.9321  0.2402 -0.4673
  219SOL    HW1  669   1.869   0.305   1.851  1.7786 -1.9262  0.5430
  219SOL    HW2  670   1.757   0.205   1.874 -0.8219  0.6779 -0.2321
  220SOL     OW  671   2.863   1.890   0.595  0.3191 -0.7270  0.1340
  220SOL    HW1  672   2.958   1.879   0.596  0.4479 -0.2890 -2.3881
  220SOL    HW2  673   2.848   1.977   0.632  1.1075  0.1303 -1.4779
  221SOL     OW  674   2.074   0.504   0.367  0.4379  0.5123 -0.5450
  221SOL    HW1  675   2.000   0.557   0.397  0.4299 -0.0203  0.3889
  221SOL    HW2  676   2.060   0.497   0.272 -1.0136 -0.0365 -0.3213
  222SOL     OW  677   1.472   0.349   1.817  0.2347  0.3854 -0.4015
  222SOL    HW1  678   1.543   0.394   1.863  0.8677 -1.3944  0.4458
  222SOL    HW2  679   1.461   0.398   1.736  1.6646  1.3655 -0.0435
  223SOL     OW  680   2.196   1.181   0.194  0.1799 -0.3782 -0.3198
  223SOL    HW1  681   2.208   1.095   0.233  0.8400 -0.7878 -1.3889
  223SOL    HW2  682   2.270   1.233   0.227 -0.3976 -0.1066  0.5843
  224SOL     OW  683   2.238   0.660   1.877 -1.1388 -0.2101  0.8557
  224SOL    HW1  684   2.307   0.681   1.939 -1.5518  0.5170  1.0814
  224SOL    HW2  685   2.184   0.739   1.873 -0.8175 -0.0209 -0.8272
  225SOL     OW  686   1.639   1.433   1.958  0.2733 -0.2529  0.3822
  225SOL    HW1  687   1.591   1.489   2.020 -0.6610  1.5263 -1.7870
  225SOL    HW2  688   1.572   1.402   1.897  0.8648 -3.4759  1.2210
  226SOL     OW  689   2.010   0.455   0.745  0.0154 -0.3819 -0.6057
  226SOL    HW1  690   1.992   0.382   0.685  0.0263  0.3620 -1.5355
  226SOL    HW2  691   2.103   0.474   0.733 -0.2559  0.5880 -1.3134
  227SOL     OW  692   1.186   2.474   1.130 -0.1875 -0.0790  0.6663
  227SOL    HW1  693   1.155   2.539   1.066 -0.0118 -1.1307 -0.5283
  227SOL    HW2  694   1.121   2.405   1.127 -0.2855 -0.0419  1.8139
  228SOL     OW  695   1.051   1.214   0.295  0.0748 -0.2604 -0.0697
  228SOL    HW1  696   1.064   1.307   0.314  1.1812 -0.4174  0.0354
  228SOL    HW2  697   0.957   1.205   0.279 -0.0025  0.9250 -0.3623
  229SOL     OW  698   1.019   2.726   0.994  0.0109  0.1228  0.0294
  229SOL    HW1  699   0.970   2.808   0.990  0.5366  0.4088 -0.6615
  229SOL    HW2  700   0.964   2.668   1.047 -0.9058  0.5508 -0.4376
  230SOL     OW  701   1.079   1.673   0.184 -0.4227  0.3095 -0.0316
  230SOL    HW1  702   1.121   1.599   0.228  0.2682 -0.4037 -1.7711
  230SOL    HW2  703   0.993   1.640   0.160 -1.6288  1.3774  2.4777
  231SOL     OW  704   2.444   2.345   1.228 -0.6660 -0.4454  0.7160
  231SOL    HW1  705   2.358   2.374   1.198  0.3693  1.8371 -0.3087
  231SOL    HW2  706   2.442   2.250   1.219 -1.7762 -0.2303 -3.1888
  232SOL     OW  707   3.702   1.132   1.222  0.8502 -0.3989  0.0425
  232SOL    HW1  708   3.762   1.164   1.289 -0.0924  2.9271 -0.4821
  232SOL    HW2  709   3.642   1.074   1.268  2.2028 -0.8257  1.3275
  233SOL     OW  710   1.172   0.906   0.921  0.6530  0.2979 -0.6018
  233SOL    HW1  711   1.174   0.995   0.955 -0.3528 -0.4647  1.6591
  233SOL    HW2  712   1.084   0.895   0.886  0.6016  0.0278 -0.3928
  234SOL     OW  713   3.382   2.613   1.670  0.1516 -0.4637  0.3708
  234SOL    HW1  714   3.465   2.585   1.709  0.3031  0.0630  0.4390
  234SOL    HW2  715   3.389   2.587   1.578  0.7407  0.2996  0.1825
  235SOL     OW  716   1.615   2.764   0.896  0.3115  0.3887  0.2930
  235SOL    HW1  717   1.546   2.826   0.918  0.2567  0.7715 -0.8837
  235SOL    HW2  718   1.581   2.716   0.820  0.9308 -0.0932  0.3110
  236SOL     OW  719   3.012   0.813   1.358  0.8719  0.3088 -0.1889
  236SOL    HW1  720   2.994   0.809   1.264 -1.9106 -0.3828  0.2804
  236SOL    HW2  721   3.028   0.722   1.383 -2.4330 -0.1748  0.5833
  237SOL     OW  722   1.052   0.535   1.230 -0.3914  0.1011  0.6496
  237SOL    HW1  723   1.044   0.577   1.145  1.0567 -0.0054  0.4292
  237SOL    HW2  724   1.134   0.485   1.224 -0.3496 -0.0379  2.0482
  238SOL     OW  725   2.615   1.642   0.805 -0.3282  0.4166 -0.0057
  238SOL    HW1  726   2.635   1.656   0.713  0.8600 -2.7350 -0.3256
  238SOL    HW2  727   2.540   1.583   0.805  1.2022 -1.6207  0.9470
  239SOL     OW  728   1.219   0.687   0.637  0.1912 -0.5140  0.0503
  239SOL    HW1  729   1.241   0.767   0.588 -1.7757  0.2061  0.2490
  239SOL    HW2  730   1.281   0.685   0.710 -0.3800  1.4331  0.6397
  240SOL     OW  731   2.181   0.684   0.745  0.1147 -0.0017 -0.3280
  240SOL    HW1  732   2.098   0.731   0.743 -0.0258 -0.2201  0.2332
  240SOL    HW2  733   2.199   0.670   0.838  1.3119  0.9650 -0.4002
  241SOL     OW  734   2.562   2.525   1.448  0.5683  0.2694 -0.6405
  241SOL    HW1  735   2.656   2.526   1.426  0.5761 -0.8785 -0.7381
  241SOL    HW2  736   2.520   2.491   1.369  0.0044  1.2325 -0.7671
  242SOL     OW  737   1.333   0.497   0.116  0.0323 -0.5982 -0.8565
  242SOL    HW1  738   1.331   0.539   0.202 -1.2035  2.5648 -2.2784
  242SOL    HW2  739   1.425   0.498   0.091  0.0910  1.0061 -0.6599
  243SOL     OW  740   1.466   0.700   0.783 -0.2004 -0.1849  0.3296
  243SOL    HW1  741   1.501   0.625   0.831 -0.5058 -1.3848 -1.2381
  243SOL    HW2  742   1.504   0.776   0.827  2.8603 -1.3482 -0.0739
  244SOL     OW  743   1.106   1.504   0.956 -0.7879  0.2167  0.7230
  244SOL    HW1  744   1.138   1.498   0.866 -0.7632  0.5229  0.7099
  244SOL    HW2  745   1.098   1.413   0.985  0.9949  0.1097  1.0341
  245SOL     OW  746   2.812   0.180   0.179 -0.3496  0.4473  0.1094
  245SOL    HW1  747   2.848   0.269   0.174 -0.5851  0.5672  0.5367
  245SOL    HW2  748   2.815   0.158   0.272 -1.8110  0.6385  0.2281
  246SOL     OW  749   0.110   0.992   0.098 -0.4571  0.2641  0.0560
  246SOL    HW1  750   0.199   0.994   0.064 -0.8782  0.6721 -1.1105
  246SOL    HW2  751   0.116   1.030   0.185  0.5224  0.1792  0.0324
  247SOL     OW  752   1.570   0.911   1.392 -0.3886  0.0587 -0.2116
  247SOL    HW1  753   1.517   0.957   1.327 -2.0012 -0.1570  0.9033
  247SOL    HW2  754   1.571   0.970   1.468  1.9733  0.5900 -0.5504
  248SOL     OW  755   1.291   2.016   1.638  0.4298 -0.2832  0.3700
  248SOL    HW1  756   1.233   1.954   1.593  2.6018 -0.7002 -2.0751
  248SOL    HW2  757   1.234   2.060   1.701 -1.7561 -2.9936  0.4713
  249SOL     OW  758   2.140   0.963   1.950 -0.6858 -0.4333  0.0753
  249SOL    HW1  759   2.139   0.973   1.855 -0.2104  3.2695  0.2869
  249SOL    HW2  760   2.232   0.978   1.975 -1.2872  1.7359  1.2247
  250SOL     OW  761   2.934   0.248   0.746 -0.4881  0.0769 -0.0735
  250SOL    HW1  762   2.846   0.255   0.784 -0.0872 -0.7726  1.0467
  250SOL    HW2  763   2.958   0.156   0.758  1.2125  0.6432  1.1423
  251SOL     OW  764   1.632   2.158   0.266  0.1225 -0.1875  0.1376
  251SOL    HW1  765   1.704   2.186   0.324 -0.4344  0.3684  0.5783
  251SOL    HW2  766   1.663   2.179   0.178  2.2637 -3.7158 -0.1746
  252SOL     OW  767   2.571   2.324   1.704 -0.7214  0.1865  0.0240
  252SOL    HW1  768   2.636   2.303   1.636  1.1104  1.3335  1.3211
  252SOL    HW2  769   2.523   2.399   1.668 -1.8405 -1.0730 -1.2244
  253SOL     OW  770   0.491   0.265   0.542 -0.2470 -0.4579 -0.4662
  253SOL    HW1  771   0.576   0.233   0.515 -1.0639 -1.8336 -1.5077
  253SOL    HW2  772   0.428   0.204   0.504 -1.6327 -0.6594  1.9020
  254SOL     OW  773   4.070   2.487   1.764  0.0800  0.9749  0.0048
  254SOL    HW1  774   4.100   2.412   1.816  1.6106  1.3730 -0.2326
  254SOL    HW2  775   4.000   2.452   1.710 -0.8832  0.3209  1.6196
  255SOL     OW  776   2.894   1.463   0.651  0.3648 -0.3314  0.3851
  255SOL    HW1  777   2.987   1.478   0.669 -0.0657  1.7122  1.2729
  255SOL    HW2  778   2.863   1.547   0.617 -0.4839 -1.9077 -3.1810
  256SOL     OW  779   1.872   2.457   1.412 -0.1721 -0.4823 -0.2350
  256SOL    HW1  780   1.908   2.541   1.439  0.9760 -1.6676  2.3195
  256SOL    HW2  781   1.948   2.403   1.393 -0.7628 -1.6353  0.5452
  257SOL     OW  782   3.205   1.900   1.597 -0.0112  0.7501  0.1335
  257SOL    HW1  783   3.246   1.986   1.595  3.2740 -0.6281  1.1104
  257SOL    HW2  784   3.176   1.884   1.507  2.8929  1.3724 -1.0167
  258SOL     OW  785   1.440   2.024   0.005 -0.2171  0.0488  0.7056
  258SOL    HW1  786   1.348   2.004  -0.011 -0.9758  2.8874  0.9050
  258SOL    HW2  787   1.480   1.941   0.029 -2.4488 -1.4875 -0.5885
  259SOL     OW  788   1.341   1.888   0.981 -0.3533 -0.0894  0.0766
  259SOL    HW1  789   1.318   1.803   1.018  0.9072 -1.0234 -1.1715
  259SOL    HW2  790   1.432   1.878   0.954 -1.2913  0.3026 -3.7386
  260SOL     OW  791   2.726   0.669   0.254  0.4823  0.8240  0.2637
  260SOL    HW1  792   2.672   0.673   0.175  1.0791  1.5520 -0.1212
  260SOL    HW2  793   2.686   0.732   0.314 -0.2029 -0.0154  0.6983
  261SOL     OW  794   2.642   1.728   0.541 -0.0614 -0.4343  0.1392
  261SOL    HW1  795   2.582   1.793   0.503 -0.3103 -2.9462 -4.4637
  261SOL    HW2  796   2.726   1.774   0.545 -0.9247  1.2068  0.4889
  262SOL     OW  797   0.899   0.908   0.783 -0.1470 -0.1961 -1.0692
  262SOL    HW1  798   0.809   0.919   0.817 -0.7104 -3.1601 -1.3361
  262SOL    HW2  799   0.897   0.948   0.697 -1.3283 -0.4900 -1.1985
  263SOL     OW  800   2.353   1.107   1.001  0.7199  0.2656 -0.3884
  263SOL    HW1  801   2.305   1.168   0.945  1.1924 -0.0533 -1.1518
  263SOL    HW2  802   2.347   1.146   1.089 -1.1260  0.1112 -0.4000
  264SOL     OW  803   3.643   1.489   1.851  0.4707  0.0211 -0.2094
  264SOL    HW1  804   3.583   1.552   1.811  0.9473  0.0189 -0.9367
  264SOL    HW2  805   3.597   1.406   1.846 -0.9020  0.5265  2.2791
  265SOL     OW  806   0.693   2.729   0.904  0.0026  0.0688 -0.4066
  265SOL    HW1  807   0.721   2.651   0.952  1.7564 -0.0335 -1.5007
  265SOL    HW2  808   0.745   2.728   0.824 -1.2725  1.3938 -1.3115
  266SOL     OW  809   2.736   2.155   1.572 -0.0060 -0.0769 -0.2570
  266SOL    HW1  810   2.801   2.116   1.630 -0.7875 -1.0804 -0.0341
  266SOL    HW2  811   2.662   2.094   1.574 -2.5683  2.7862  2.5055
  267SOL     OW  812   3.628   0.502   1.826  1.0517 -0.2623  0.1693
  267SOL    HW1  813   3.684   0.565   1.871  0.9883  0.4265 -0.6906
  267SOL    HW2  814   3.604   0.439   1.894  2.5536 -0.3648  0.6482
  268SOL     OW  815   1.808   0.256   0.078 -0.0907  0.0851  0.1468
  268SOL    HW1  816   1.736   0.313   0.051 -1.0297 -1.7683 -1.4977
  268SOL    HW2  817   1.765   0.184   0.125  0.9515  0.0859  1.1549
  269SOL     OW  818   3.106   1.117   1.466  0.1708 -0.6978 -0.1862
  269SOL    HW1  819   3.172   1.147   1.529 -0.2636 -2.8053  1.3880
  269SOL    HW2  820   3.090   1.193   1.410 -0.3261  1.7915  3.0108
  270SOL     OW  821   1.245   0.655   1.529 -0.2822 -0.2640  0.2193
  270SOL    HW1  822   1.177   0.653   1.596  0.5913 -0.9822  1.1195
  270SOL    HW2  823   1.304   0.584   1.552 -0.3435 -1.0365 -1.7737
  271SOL     OW  824   2.560   2.723   1.854 -0.0295  0.1317 -0.0904
  271SOL    HW1  825   2.655   2.718   1.868  0.5506 -3.3952 -3.3480
  271SOL    HW2  826   2.551   2.774   1.774 -0.8640  0.3063  0.1140
  272SOL     OW  827   0.839   1.830   0.666  0.6562  0.3681  0.6746
  272SOL    HW1  828   0.882   1.765   0.611  0.4437  1.2056 -0.5190
  272SOL    HW2  829   0.764   1.860   0.615  0.5497  1.2883  1.3395
  273SOL     OW  830   1.515   0.410   1.551 -0.2860 -0.0098 -0.2107
  273SOL    HW1  831   1.499   0.322   1.517  2.3576 -1.7710  2.5731
  273SOL    HW2  832   1.584   0.446   1.496 -1.4852  0.4767 -1.4562
  274SOL     OW  833   1.659   2.088   1.337 -0.5893  0.1777  0.0511
  274SOL    HW1  834   1.621   2.167   1.376 -1.5944 -0.7607  1.0167
  274SOL    HW2  835   1.730   2.064   1.397 -1.0032 -0.2655  0.3751
  275SOL     OW  836   3.456   0.416   1.470  0.4306 -0.1611  0.8170
  275SOL    HW1  837   3.522   0.391   1.534  0.6017  1.0628  1.1525
  275SOL    HW2  838   3.477   0.507   1.448 -1.1903  0.2904  0.9877
  276SOL     OW  839   3.089   0.568   1.465  0.4779 -0.1069 -0.1953
  276SOL    HW1  840   3.175   0.582   1.504  1.0725  1.0166 -1.8005
  276SOL    HW2  841   3.089   0.476   1.438  1.2004 -0.1021 -0.2285
  277SOL     OW  842   2.475   2.717   0.300  0.1865  0.1506  0.6185
  277SOL    HW1  843   2.547   2.692   0.242 -0.1387  1.4465 -0.3864
  277SOL    HW2  844   2.517   2.769   0.368  0.1561  1.5397 -0.3722
  278SOL     OW  845   2.886   1.724   1.260 -0.4001  0.0176 -0.0559
  278SOL    HW1  846   2.842   1.658   1.207  0.7841  0.9695 -2.3743
  278SOL    HW2  847   2.819   1.790   1.279 -0.8082 -0.2636 -0.5210
  279SOL     OW  848   1.571   1.893   0.715  0.0173  0.2242 -0.3938
  279SOL    HW1  849   1.615   1.852   0.641  0.5613 -0.1233  0.1145
  279SOL    HW2  850   1.571   1.987   0.694  1.0580  0.2366 -0.3840
  280SOL     OW  851   2.833   2.465   1.970 -0.0840  0.0039 -0.6809
  280SOL    HW1  852   2.794   2.458   1.883  0.3393  0.4362 -0.9123
  280SOL    HW2  853   2.759   2.474   2.029 -0.3686 -0.1299 -1.0129
  281SOL     OW  854   2.737   2.138   0.002 -0.3852 -0.0052 -0.7609
  281SOL    HW1  855   2.670   2.117  -0.063 -1.6663  0.5232  0.3292
  281SOL    HW2  856   2.687   2.165   0.080  1.1069  1.3365 -0.2190
  282SOL     OW  857   1.360   1.275   0.310 -0.4864 -0.7486 -0.4672
  282SOL    HW1  858   1.277   1.239   0.277 -0.8773 -0.5836  0.3128
  282SOL    HW2  859   1.345   1.369   0.317 -0.3546 -0.7597  0.0103
  283SOL     OW  860   0.734   2.724   0.446 -0.2176  0.7624 -0.4696
  283SOL    HW1  861   0.702   2.668   0.376  1.4099  1.2425 -1.6703
  283SOL    HW2  862   0.787   2.666   0.502 -3.0371 -0.0617  1.5928
  284SOL     OW  863   1.667   2.559   0.431 -0.0173  0.0365  0.5997
  284SOL    HW1  864   1.698   2.469   0.431  3.2842  1.0627  0.2481
  284SOL    HW2  865   1.699   2.596   0.513 -1.5823  0.8786  0.8850
  285SOL     OW  866   3.590   0.073   1.226 -0.1872  0.8132 -0.2731
  285SOL    HW1  867   3.621   0.121   1.303  1.0967 -0.8756  0.3047
  285SOL    HW2  868   3.647   0.102   1.155  1.1243 -0.4128  0.2485
  286SOL     OW  869   1.859   1.547   0.565 -0.1450 -0.5586 -0.1721
  286SOL    HW1  870   1.916   1.474   0.540 -1.8698 -1.3105 -2.1656
  286SOL    HW2  871   1.801   1.510   0.631 -0.8909 -0.9977 -1.0416
  287SOL     OW  872   3.791   2.268   1.676 -0.2229  0.1856 -0.2213
  287SOL    HW1  873   3.849   2.220   1.735 -1.3761 -0.6368  0.2746
  287SOL    HW2  874   3.819   2.241   1.588 -0.1041 -0.5009  0.0238
  288SOL     OW  875   1.029   0.133   0.732  0.0068  0.0478 -0.3306
  288SOL    HW1  876   0.982   0.187   0.669 -1.9027 -2.0896 -0.8677
  288SOL    HW2  877   0.975   0.135   0.811  0.3108 -0.4395 -0.1063
  289SOL     OW  878   1.490   1.190   0.528  0.1460  0.1838 -0.4252
  289SOL    HW1  879   1.515   1.280   0.546 -0.4736  1.2203 -4.0040
  289SOL    HW2  880   1.424   1.196   0.459 -1.0015 -2.9856  0.1987
  290SOL     OW  881   2.429   2.053   1.240  0.0117  0.5227 -0.3855
  290SOL    HW1  882   2.362   2.040   1.308  0.5826  1.0018  0.2816
  290SOL    HW2  883   2.421   1.975   1.185 -1.0341  0.5252 -0.2758
  291SOL     OW  884   3.757   2.600   1.869  0.1541 -0.1970 -0.1861
  291SOL    HW1  885   3.783   2.685   1.905  1.4823 -0.4554 -0.4792
  291SOL    HW2  886   3.781   2.537   1.936 -0.7386 -0.3548 -0.0106
  292SOL     OW  887   1.725   1.279   1.642  0.1674  0.4721  0.2111
  292SOL    HW1  888   1.781   1.202   1.635  1.9282  1.6860  0.3138
  292SOL    HW2  889   1.766   1.333   1.710 -2.7143  0.1769  2.3393
  293SOL     OW  890   1.043   2.476   1.429  0.3719 -0.0194 -0.3111
  293SOL    HW1  891   1.080   2.389   1.415  3.9918  1.5342 -1.8753
  293SOL    HW2  892   0.997   2.496   1.347 -1.9443 -0.9942  0.6819
  294SOL     OW  893   1.221   1.056   0.150  0.3787  0.4945 -0.3697
  294SOL    HW1  894   1.158   1.126   0.166 -0.6979 -0.4950 -0.1218
  294SOL    HW2  895   1.178   0.999   0.086  1.0898 -0.1213 -0.3192
  295SOL     OW  896   2.677   1.514   1.233 -0.2510  0.2500 -1.0656
  295SOL    HW1  897   2.720   1.449   1.289  0.5044  0.9239 -0.8658
  295SOL    HW2  898   2.679   1.475   1.146  2.2722  0.9634 -1.3935
  296SOL     OW  899   3.100   2.023   1.810  0.3426 -0.4147  0.0429
  296SOL    HW1  900   3.135   1.966   1.741 -2.2374 -3.7240  1.1478
  296SOL    HW2  901   3.166   2.020   1.879  1.8808  1.0461 -1.2534
  297SOL     OW  902   3.095   1.416   1.477  0.0550 -0.3097  0.1141
  297SOL    HW1  903   3.019   1.381   1.430  0.1142 -0.5156  0.1672
  297SOL    HW2  904   3.068   1.502   1.507 -0.6899 -0.9668  1.4304
  298SOL     OW  905   3.142   1.857   1.322  0.6189  0.2354  0.6705
  298SOL    HW1  906   3.175   1.931   1.271  0.0895 -0.0331 -0.0985
  298SOL    HW2  907   3.180   1.780   1.278 -1.8959 -0.1662 -1.0290
  299SOL     OW  908   1.823   2.144   0.796 -0.2210  0.2470  0.5513
  299SOL    HW1  909   1.737   2.117   0.766  0.0495  0.7601 -0.7691
  299SOL    HW2  910   1.824   2.239   0.782  0.3826  0.3150  1.0086
  300SOL     OW  911   2.034   2.199   1.900 -0.0622  0.7143  0.0926
  300SOL    HW1  912   2.107   2.237   1.852  3.0025 -2.4457  1.7752
  300SOL    HW2  913   2.054   2.216   1.992 -2.0967  0.6973  0.6007
  301SOL     OW  914   1.061   1.464   0.584 -0.6808 -0.2934 -0.2227
  301SOL    HW1  915   1.001   1.431   0.652 -1.3321  2.1512  0.4915
  301SOL    HW2  916   1.026   1.550   0.561  0.9221 -0.0352 -1.9566
  302SOL     OW  917   2.796   2.384   1.399 -0.3690 -0.1223 -0.2589
  302SOL    HW1  918   2.799   2.367   1.304  1.7666 -3.4355  0.2082
  302SOL    HW2  919   2.766   2.302   1.437  1.2906  0.2352  2.0438
  303SOL     OW  920   3.088   1.819   0.976 -0.0230  0.5551  0.5627
  303SOL    HW1  921   3.001   1.781   0.963  0.1530 -0.1730  1.4320
  303SOL    HW2  922   3.126   1.769   1.047  0.6558  1.6558  1.0040
  304SOL     OW  923   2.611   1.145   0.098  0.3655 -0.5883 -0.3503
  304SOL    HW1  924   2.660   1.108   0.172  0.8582  2.0518  0.7430
  304SOL    HW2  925   2.553   1.210   0.138 -2.2414 -1.7747 -1.9168
  305SOL     OW  926   3.328   0.239   1.294 -0.4549  0.3942  0.0403
  305SOL    HW1  927   3.376   0.319   1.318  2.0716 -1.1647  0.5574
  305SOL    HW2  928   3.376   0.204   1.219  0.1511 -1.9523  1.4167
  306SOL     OW  929   3.153   2.330   0.554 -0.0324 -0.1789  0.0607
  306SOL    HW1  930   3.101   2.393   0.603  0.8923 -0.0814  0.9604
  306SOL    HW2  931   3.240   2.369   0.549  0.1293 -0.6241 -0.8525
  307SOL     OW  932   0.348   1.916   0.374 -0.2748 -0.2384  0.1533
  307SOL    HW1  933   0.434   1.909   0.332 -0.6696 -0.2976 -0.6616
  307SOL    HW2  934   0.361   1.979   0.445  0.5033 -0.4384  0.1983
  308SOL     OW  935   1.630   2.122   1.745  0.9766  0.4961 -0.0888
  308SOL    HW1  936   1.629   2.108   1.840 -0.1294 -1.7433 -0.3555
  308SOL    HW2  937   1.630   2.033   1.708  0.3994  1.3110 -2.1713
  309SOL     OW  938   2.773   0.031   1.475  0.6893  0.4403  0.3474
  309SOL    HW1  939   2.715   0.077   1.535  0.3165  0.2295  0.1477
  309SOL    HW2  940   2.860   0.040   1.514  0.3585 -0.2899  1.2878
  310SOL     OW  941   2.742   0.548   1.459 -0.2228 -0.0936  0.3976
  310SOL    HW1  942   2.676   0.504   1.514 -0.7084  0.3943  0.2135
  310SOL    HW2  943   2.752   0.491   1.383  0.2033 -0.6015  0.8207
  311SOL     OW  944   3.100   1.298   1.741  0.3202 -0.1492 -0.1460
  311SOL    HW1  945   3.108   1.330   1.651  2.0691 -0.4880 -0.1595
  311SOL    HW2  946   3.162   1.351   1.791 -1.1999  0.5776  1.0534
  312SOL     OW  947   2.725   0.227   1.986 -0.2498 -0.0469  0.3539
  312SOL    HW1  948   2.631   0.227   2.003 -0.1624 -2.6753  1.2544
  312SOL    HW2  949   2.732   0.240   1.892 -1.3670  1.9057  0.4725
  313SOL     OW  950   1.259   0.242   0.569 -0.0795  0.6380  0.3604
  313SOL    HW1  951   1.190   0.257   0.634 -1.4895  0.4493 -1.0264
  313SOL    HW2  952   1.229   0.289   0.491  0.5278 -0.8215 -0.7953
  314SOL     OW  953   1.528   1.899   1.622  0.3347  0.2744  0.3167
  314SOL    HW1  954   1.555   1.844   1.548 -0.1171 -0.7401  0.8892
  314SOL    HW2  955   1.437   1.922   1.603  0.3031  0.2382  0.4256
  315SOL     OW  956   2.063   0.074   1.933 -0.7447  0.2013  0.1940
  315SOL    HW1  957   2.132   0.134   1.903 -0.0492  0.0982  1.5258
  315SOL    HW2  958   2.070  -0.002   1.875  0.3195  0.1603  0.3699
  316SOL     OW  959   3.039   2.588   0.678 -0.2342  0.4178  0.2936
  316SOL    HW1  960   2.962   2.599   0.622 -0.7778  1.7335  1.2536
  316SOL    HW2  961   3.043   2.669   0.729  0.1820 -0.7835  2.2316
  317SOL     OW  962   2.216   2.249   0.620 -0.1726 -1.0217  0.1889
  317SOL    HW1  963   2.165   2.185   0.671 -0.6825 -1.0915 -0.3984
  317SOL    HW2  964   2.153   2.316   0.594  0.2558 -0.5438  0.3566
  318SOL     OW  965   2.384   0.920   1.704 -0.3941  0.0859 -0.2986
  318SOL    HW1  966   2.380   1.001   1.654  2.2381  1.1131  0.9836
  318SOL    HW2  967   2.357   0.852   1.641 -0.3476  1.6766 -2.1261
  319SOL     OW  968   2.420   0.154   0.729 -0.1717  0.1848  0.3776
  319SOL    HW1  969   2.401   0.248   0.719  1.5053  0.6950  1.5153
  319SOL    HW2  970   2.359   0.124   0.796  0.2666  0.8349  1.0890
  320SOL     OW  971   1.878   1.251   0.274  0.3602 -0.3238 -0.5894
  320SOL    HW1  972   1.787   1.277   0.262  0.1867 -1.2539 -1.3768
  320SOL    HW2  973   1.921   1.271   0.191  1.3815  1.9703  0.3896
  321SOL     OW  974   3.846   1.483   1.642 -0.1723  0.4215 -0.1140
  321SOL    HW1  975   3.782   1.414   1.655  0.0318  0.2600  0.0374
  321SOL    HW2  976   3.813   1.556   1.694 -1.8475  1.4155 -2.3937
  322SOL     OW  977   1.928   1.987   1.773 -0.1380 -0.5789 -0.4828
  322SOL    HW1  978   1.918   1.928   1.848  1.4783 -1.4038 -0.8646
  322SOL    HW2  979   1.947   2.072   1.813 -2.9384 -0.1201  0.0854
  323SOL     OW  980   2.550   1.272   1.950 -0.0338 -0.2364  0.3432
  323SOL    HW1  981   2.562   1.295   1.858 -0.1589 -0.4631  0.2685
  323SOL    HW2  982   2.465   1.310   1.974  0.4069  0.5880  0.6166
  324SOL     OW  983   0.685   0.154   0.374 -0.0269  0.1484 -0.6801
  324SOL    HW1  984   0.654   0.118   0.291  0.8088 -0.2619 -0.8242
  324SOL    HW2  985   0.717   0.079   0.423  0.1525  0.4783 -0.2779
  325SOL     OW  986   1.052   0.437   0.653  0.7347  0.0166 -0.6004
  325SOL    HW1  987   1.108   0.512   0.634  0.6718 -0.0967 -1.2713
  325SOL    HW2  988   0.978   0.446   0.593 -0.2542  0.4463  0.6344
  326SOL     OW  989   2.821   1.949   0.273 -0.5471 -0.0804 -0.2219
  326SOL    HW1  990   2.748   1.943   0.334 -0.9223  2.4742 -0.3231
  326SOL    HW2  991   2.890   1.995   0.322 -1.4856  3.6840 -2.0868
  327SOL     OW  992   1.214   1.407   1.218  0.4728  0.2190 -0.5108
  327SOL    HW1  993   1.180   1.439   1.134 -1.6924  1.9989  0.9337
  327SOL    HW2  994   1.301   1.374   1.197 -0.1196  0.2329 -3.5157
  328SOL     OW  995   2.072   2.289   1.420 -0.2263 -0.2146 -0.4369
  328SOL    HW1  996   2.011   2.215   1.432 -1.8575  1.1162 -0.1148
  328SOL    HW2  997   2.111   2.301   1.506 -1.6611  0.6771  0.1295
  329SOL     OW  998   1.459   1.973   0.351  0.5818 -0.3584  0.2274
  329SOL    HW1  999   1.470   1.896   0.296 -0.5015 -0.7341  0.5101
  329SOL    HW2 1000   1.541   2.021   0.342  2.2947 -2.6998  1.8455
  330SOL     OW 1001   1.065   1.239   1.390 -0.1970  0.1222 -0.1189
  330SOL    HW1 1002   1.136   1.184   1.424 -0.4187  0.4156  0.8533
  330SOL    HW2 1003   1.108   1.297   1.328  0.5068  0.5551  0.7405
  331SOL     OW 1004   2.127   2.026   0.151 -0.1588 -0.4680 -0.3768
  331SOL    HW1 1005   2.193   1.979   0.202 -1.7330 -0.5357  1.6844
  331SOL    HW2 1006   2.070   1.957   0.116 -0.2263 -0.3063 -0.5892
  332SOL     OW 1007   3.076   0.297   1.958 -0.5438 -0.5579 -0.7178
  332SOL    HW1 1008   3.076   0.392   1.960 -0.5819 -0.4756 -2.6966
  332SOL    HW2 1009   3.155   0.274   1.909 -0.0481 -1.6071  0.4906
  333SOL     OW 1010   1.011   1.585   1.302  0.2844  0.6148  0.0427
  333SOL    HW1 1011   1.070   1.511   1.311 -1.6572 -0.7422  2.5486
  333SOL    HW2 1012   1.057   1.658   1.342  1.9741  0.7416 -1.9486
  334SOL     OW 1013   3.751   0.572   1.485  0.3637 -0.1309  0.5160
  334SOL    HW1 1014   3.805   0.569   1.406 -0.2093 -0.4815  0.1336
  334SOL    HW2 1015   3.754   0.483   1.519 -0.0784 -0.1862  0.4173
  335SOL     OW 1016   0.579   2.499   0.593  0.6825  0.3336 -0.4399
  335SOL    HW1 1017   0.674   2.501   0.606  0.6465  0.5466 -0.1939
  335SOL    HW2 1018   0.542   2.502   0.682  0.4408  0.9362 -0.5535
  336SOL     OW 1019   2.052   1.660   1.020 -0.4014 -0.0739  0.0149
  336SOL    HW1 1020   2.016   1.603   1.088 -1.3670  0.9975  0.4333
  336SOL    HW2 1021   2.064   1.744   1.063 -2.0166  0.9353 -1.3691
  337SOL     OW 1022   1.558   0.311   0.792  0.0851  0.5803 -0.1398
  337SOL    HW1 1023   1.639   0.307   0.741 -0.0708 -1.3898 -0.3105
  337SOL    HW2 1024   1.573   0.381   0.856  1.4060  1.1109 -0.9975
  338SOL     OW 1025   2.039   2.772   0.827 -0.3820 -0.5717 -0.2234
  338SOL    HW1 1026   2.003   2.705   0.885 -0.8034  1.2594  1.7739
  338SOL    HW2 1027   2.117   2.732   0.789  0.8432 -1.4336  2.8429
  339SOL     OW 1028   0.996   0.251   1.303 -0.1711 -0.5634 -0.0755
  339SOL    HW1 1029   1.090   0.235   1.298  0.0576  0.5873  0.1375
  339SOL    HW2 1030   0.988   0.347   1.303 -1.4178 -0.6215 -1.6157
  340SOL     OW 1031   1.965   1.163   1.912  0.5383 -0.4834  0.1564
  340SOL    HW1 1032   2.018   1.088   1.940  2.3064 -0.2400 -2.2721
  340SOL    HW2 1033   1.878   1.145   1.948  1.8068 -1.7005  2.9532
  341SOL     OW 1034   3.574   1.857   1.156 -0.0628 -0.2534 -0.2968
  341SOL    HW1 1035   3.654   1.822   1.116 -0.1282 -0.7212 -0.0352
  341SOL    HW2 1036   3.563   1.804   1.235  0.2885  0.9074  0.5639
  342SOL     OW 1037   1.431   1.193   0.826  0.3217  0.4756  0.6892
  342SOL    HW1 1038   1.414   1.162   0.738  0.0964  0.6567  0.6696
  342SOL    HW2 1039   1.386   1.277   0.832 -0.0306  0.2611  1.1211
  343SOL     OW 1040   2.531   1.054   0.518 -0.3209  0.0811 -0.2393
  343SOL    HW1 1041   2.449   1.004   0.511 -0.2029 -0.7368  2.7306
  343SOL    HW2 1042   2.554   1.048   0.610  1.4542  2.9784 -0.3779
  344SOL     OW 1043   2.685   0.833   1.505  0.1613  0.3816  0.5590
  344SOL    HW1 1044   2.704   0.837   1.599  1.0302 -0.8807  0.4765
  344SOL    HW2 1045   2.736   0.758   1.474 -0.6640  0.3442 -0.7978
  345SOL     OW 1046   3.352   0.250   1.844 -0.4709 -0.2639  0.1280
  345SOL    HW1 1047   3.332   0.215   1.757  1.0539  1.3619 -0.9297
  345SOL    HW2 1048   3.407   0.183   1.884 -0.6640 -0.7471 -0.3956
  346SOL     OW 1049   3.317   0.993   1.113 -0.0670 -0.5356 -0.2053
  346SOL    HW1 1050   3.295   1.082   1.140  0.1634 -1.1061  2.0573
  346SOL    HW2 1051   3.236   0.958   1.076  0.1154  0.8970 -2.1052
  347SOL     OW 1052   1.766   1.307   0.991 -0.3928 -0.2706 -0.0561
  347SOL    HW1 1053   1.772   1.211   0.993  0.9000 -0.1972  0.9092
  347SOL    HW2 1054   1.730   1.330   1.076  2.2049  0.2075  1.0243
  348SOL     OW 1055   1.861   2.650   0.604  0.2553 -0.1278  0.1647
  348SOL    HW1 1056   1.910   2.674   0.525  0.6021 -0.5135  0.2587
  348SOL    HW2 1057   1.840   2.733   0.645  2.1069  0.0322  0.8927
  349SOL     OW 1058   1.850   0.378   1.500 -0.6894 -0.1216 -0.5622
  349SOL    HW1 1059   1.803   0.458   1.523 -2.1887 -1.4310  1.1661
  349SOL    HW2 1060   1.891   0.399   1.416 -0.8363  2.5122 -0.0796
  350SOL     OW 1061   2.968   2.094   0.801  0.8923 -0.1942 -0.6070
  350SOL    HW1 1062   3.030   2.153   0.844  0.0105  0.8825 -0.7557
  350SOL    HW2 1063   2.953   2.024   0.864  3.0694 -1.0725 -0.9966
  351SOL     OW 1064   1.173   1.056   1.144  0.0628  0.1564  0.1150
  351SOL    HW1 1065   1.220   1.004   1.210 -0.4152 -1.1323 -0.5336
  351SOL    HW2 1066   1.117   1.114   1.196  0.1093 -0.4461  0.8635
  352SOL     OW 1067   1.485   0.652   1.246 -0.2886  0.3064  0.4409
  352SOL    HW1 1068   1.403   0.674   1.203 -0.3533  2.3469  1.4697
  352SOL    HW2 1069   1.511   0.733   1.291  2.1667 -0.3340  0.3341
  353SOL     OW 1070   1.624   1.290   0.247  0.6932 -0.5146 -0.1019
  353SOL    HW1 1071   1.597   1.347   0.175  0.4953  1.1609  1.2111
  353SOL    HW2 1072   1.542   1.261   0.287  0.7905  0.3391  0.7419
  354SOL     OW 1073   3.945   0.647   1.797  0.4772 -0.0050 -0.7021
  354SOL    HW1 1074   3.951   0.552   1.790  1.4141 -0.0257  0.1878
  354SOL    HW2 1075   3.858   0.663   1.833  0.6156 -0.5872 -0.0811
  355SOL     OW 1076   2.805   2.622   0.518 -0.2919  0.2293 -0.4183
  355SOL    HW1 1077   2.769   2.591   0.435 -0.6928 -2.6080  0.6812
  355SOL    HW2 1078   2.727   2.636   0.573  0.0457  0.0553  0.1071
  356SOL     OW 1079   3.704   2.562   1.231 -0.5482 -0.6629  0.5212
  356SOL    HW1 1080   3.665   2.597   1.311 -1.7014 -0.9619  0.1018
  356SOL    HW2 1081   3.646   2.492   1.204  0.8511 -1.8414  0.4445
  357SOL     OW 1082   3.945   2.114   1.850  0.1969 -0.1730 -0.0011
  357SOL    HW1 1083   3.905   2.056   1.915 -0.3550  0.4761  0.2524
  357SOL    HW2 1084   3.990   2.180   1.902  0.2249  0.0323 -0.2849
  358SOL     OW 1085   3.547   0.942   1.322 -0.1344  0.3046  0.0498
  358SOL    HW1 1086   3.478   0.936   1.257 -0.2507  0.8375  0.1235
  358SOL    HW2 1087   3.534   0.865   1.378  0.4021 -0.5487 -0.9619
  359SOL     OW 1088   1.007   2.275   1.115  0.2724 -0.1579 -0.7970
  359SOL    HW1 1089   0.933   2.256   1.173  0.6661  0.9617  0.1210
  359SOL    HW2 1090   1.066   2.201   1.127  0.7143  0.4138  0.9022
  360SOL     OW 1091   2.210   0.943   0.337  0.1693 -0.1853 -0.7514
  360SOL    HW1 1092   2.244   0.854   0.321  2.0503  0.1654  0.8429
  360SOL    HW2 1093   2.167   0.937   0.423  0.8054  0.5510 -0.3717
  361SOL     OW 1094   1.702   0.043   1.748 -0.4422 -0.1535  0.4853
  361SOL    HW1 1095   1.722  -0.045   1.717  1.4614  0.1515  0.7022
  361SOL    HW2 1096   1.610   0.056   1.728 -0.5026 -1.8185 -0.4503
  362SOL     OW 1097   1.780   2.420   0.821  0.2426  0.0961  0.7074
  362SOL    HW1 1098   1.767   2.487   0.754  2.1080  0.9405  1.1378
  362SOL    HW2 1099   1.708   2.433   0.883 -1.4227 -0.5973 -0.9766
  363SOL     OW 1100   3.419   2.212   0.938 -0.6241  0.1131  0.4307
  363SOL    HW1 1101   3.417   2.116   0.930 -0.8449  0.0618  1.0629
  363SOL    HW2 1102   3.328   2.237   0.954 -0.3773  0.2851  1.7237
  364SOL     OW 1103   1.385   2.174   1.432 -0.0023 -0.6059 -0.4402
  364SOL    HW1 1104   1.381   2.085   1.467  0.9378 -1.0966 -1.4983
  364SOL    HW2 1105   1.467   2.210   1.467 -0.2105 -0.2761 -0.2895
  365SOL     OW 1106   1.989   0.986   0.523  0.1116 -0.3114  0.3657
  365SOL    HW1 1107   1.903   1.016   0.553 -0.0139 -0.3622  0.0544
  365SOL    HW2 1108   1.970   0.911   0.467  0.4111 -0.8759  1.0036
  366SOL     OW 1109   1.995   2.781   0.410 -0.1708 -0.5065  0.4009
  366SOL    HW1 1110   2.052   2.858   0.418 -0.3227 -0.1946 -1.2259
  366SOL    HW2 1111   1.962   2.785   0.321 -0.4051 -2.3211  0.3731
  367SOL     OW 1112   3.889   1.881   1.593 -0.5438 -0.5916  0.3960
  367SOL    HW1 1113   3.883   1.819   1.665  0.2324 -0.7469  0.3316
  367SOL    HW2 1114   3.798   1.901   1.572 -0.7887 -1.0050  1.0165
  368SOL     OW 1115   1.427   0.150   0.971  0.3412  0.2138 -1.0307
  368SOL    HW1 1116   1.463   0.216   0.911 -1.5608  1.2372 -1.1682
  368SOL    HW2 1117   1.363   0.102   0.918 -0.0042 -0.1345 -0.3165
  369SOL     OW 1118   1.797   0.560   1.092  0.0475  0.5944 -0.3447
  369SOL    HW1 1119   1.739   0.527   1.023  2.3820 -0.4050 -1.9689
  369SOL    HW2 1120   1.778   0.654   1.096 -1.1067  0.4350 -1.4053
  370SOL     OW 1121   2.964   0.201   1.186 -0.4187  0.1768  0.0366
  370SOL    HW1 1122   2.955   0.272   1.249 -0.2087 -0.1262  0.4061
  370SOL    HW2 1123   3.010   0.132   1.233  0.0568  0.0825 -0.5528
  371SOL     OW 1124   2.587   1.351   1.025  0.6799  0.1964  0.6219
  371SOL    HW1 1125   2.504   1.308   1.047  2.0216 -3.4440 -0.5402
  371SOL    HW2 1126   2.595   1.340   0.930  2.7555 -0.1884  0.7934
  372SOL     OW 1127   0.166   2.037   0.034 -0.1763  0.0468  0.6399
  372SOL    HW1 1128   0.102   2.088  -0.014 -0.5803 -1.4050 -0.4051
  372SOL    HW2 1129   0.115   1.987   0.098  0.0658 -0.0531  0.7593
  373SOL     OW 1130   2.473   1.813   1.033  0.0027  0.0730  0.2379
  373SOL    HW1 1131   2.422   1.818   0.952 -1.7631 -1.1934  1.1804
  373SOL    HW2 1132   2.559   1.782   1.005 -0.4331  0.0634 -1.1954
  374SOL     OW 1133   3.096   0.870   2.006 -0.8904 -1.0376 -0.0979
  374SOL    HW1 1134   3.156   0.860   1.933 -1.0253 -2.6976 -0.0313
  374SOL    HW2 1135   3.039   0.943   1.981 -0.2720 -0.8944 -1.1572
  375SOL     OW 1136   3.247   1.531   0.818 -0.1631 -0.1281 -0.1869
  375SOL    HW1 1137   3.220   1.620   0.841  0.0144 -0.5249  1.7429
  375SOL    HW2 1138   3.328   1.542   0.769  0.6554  0.7722  1.2729
  376SOL     OW 1139   2.008   1.862   0.641 -0.1024 -0.1073  0.1672
  376SOL    HW1 1140   2.020   1.785   0.696  0.5003  2.1108  3.3764
  376SOL    HW2 1141   1.914   1.877   0.639 -0.0607  0.4979  1.7302
  377SOL     OW 1142   2.745   1.743   1.840 -0.7623  0.1789  0.1562
  377SOL    HW1 1143   2.756   1.738   1.935 -1.0658 -0.7379  0.1615
  377SOL    HW2 1144   2.745   1.836   1.820  0.6724  0.3489  0.8830
  378SOL     OW 1145   2.399   2.036   1.754 -0.0384 -0.4791 -0.5341
  378SOL    HW1 1146   2.467   2.031   1.822  0.9076 -1.2549 -1.5043
  378SOL    HW2 1147   2.328   1.982   1.788  0.7745 -1.5779 -0.5257
  379SOL     OW 1148   0.670   1.620   0.427 -0.4386 -0.6157 -0.2242
  379SOL    HW1 1149   0.639   1.529   0.430 -2.7631  0.1006 -0.6714
  379SOL    HW2 1150   0.638   1.659   0.509 -0.0843 -0.0123 -0.3673
  380SOL     OW 1151   1.213   1.501   0.370  0.6001  0.5719 -0.1164
  380SOL    HW1 1152   1.166   1.470   0.447  0.5201  0.3104 -0.2687
  380SOL    HW2 1153   1.279   1.560   0.404  0.4360  0.6092  0.1366
  381SOL     OW 1154   2.221   2.585   0.330  0.3589  0.0356 -0.3083
  381SOL    HW1 1155   2.194   2.659   0.274 -0.5264 -1.9655 -2.6925
  381SOL    HW2 1156   2.316   2.589   0.331  0.3845  0.3685 -1.6891
  382SOL     OW 1157   1.833   2.236   1.060 -0.1367  0.9356  0.4981
  382SOL    HW1 1158   1.801   2.224   0.971  1.2666  1.7331 -0.1446
  382SOL    HW2 1159   1.763   2.284   1.104 -0.3115  1.7017 -0.5606
  383SOL     OW 1160   3.765   2.698   1.527  0.5216 -0.3719  0.4270
  383SOL    HW1 1161   3.748   2.605   1.539  0.8674 -0.3278  1.2817
  383SOL    HW2 1162   3.846   2.701   1.476 -0.3729 -0.5435 -1.0652
  384SOL     OW 1163   3.153   2.584   1.436  0.5187  0.0003  0.1623
  384SOL    HW1 1164   3.165   2.490   1.445  1.1092  0.0237 -0.2973
  384SOL    HW2 1165   3.078   2.605   1.492  0.2626 -0.7668  0.1099
  385SOL     OW 1166   3.031   0.689   0.326  0.9146  0.1313  0.2073
  385SOL    HW1 1167   3.081   0.755   0.278  1.2801 -1.8275 -2.2959
  385SOL    HW2 1168   2.940   0.704   0.300  0.9799 -0.2373 -0.2436
  386SOL     OW 1169   3.005   0.003   0.811 -0.0324  0.9913  0.4092
  386SOL    HW1 1170   3.082   0.026   0.862  0.7947  0.2774 -0.4654
  386SOL    HW2 1171   2.935  -0.009   0.875  0.6033  1.5742  1.2217
  387SOL     OW 1172   3.618   2.491   1.678  0.5847  0.5394 -0.2958
  387SOL    HW1 1173   3.662   2.543   1.745  0.2993  1.0706 -0.5200
  387SOL    HW2 1174   3.664   2.406   1.680 -0.4033  0.0012  1.6396
  388SOL     OW 1175   3.663   1.902   1.753 -0.4052 -0.3130 -0.3280
  388SOL    HW1 1176   3.645   1.969   1.819 -2.7165 -1.1194 -0.0685
  388SOL    HW2 1177   3.726   1.843   1.795  1.8649  1.7155 -0.6442
  389SOL     OW 1178   1.988   1.788   0.089  0.4286 -0.0122  0.1492
  389SOL    HW1 1179   1.983   1.702   0.131  0.8389 -0.0897  0.0454
  389SOL    HW2 1180   1.985   1.768  -0.005 -2.8647  0.2970  0.0817
  390SOL     OW 1181   1.007   1.760   1.078 -0.2675  0.0166  0.0131
  390SOL    HW1 1182   1.007   1.723   0.990 -2.9314  0.5687 -0.3203
  390SOL    HW2 1183   1.042   1.691   1.133  0.1689 -0.8509 -1.3091
  391SOL     OW 1184   2.152   2.532   1.195  0.1985 -0.1514  0.5176
  391SOL    HW1 1185   2.164   2.517   1.289 -1.8663  0.0928  0.8696
  391SOL    HW2 1186   2.188   2.620   1.180  1.2235 -0.4907  0.9070
  392SOL     OW 1187   3.061   0.044   1.533 -0.0948 -0.0666  0.2086
  392SOL    HW1 1188   3.095   0.009   1.451  0.7335  0.8738  0.1278
  392SOL    HW2 1189   3.139   0.073   1.581 -0.6392  0.2970  0.8985
  393SOL     OW 1190   1.614   2.346   1.412  0.3581  0.3334  0.9759
  393SOL    HW1 1191   1.698   2.390   1.423  2.0800 -2.1693 -0.9830
  393SOL    HW2 1192   1.550   2.417   1.408  2.9341  2.7654 -2.3992
  394SOL     OW 1193   2.852   0.400   0.985  0.2274  0.4362  0.1159
  394SOL    HW1 1194   2.786   0.351   0.936  0.2638  1.4693 -1.0079
  394SOL    HW2 1195   2.933   0.350   0.973  0.1006  0.3429 -0.3670
  395SOL     OW 1196   3.080   1.705   0.503 -0.6163 -0.4782 -0.3284
  395SOL    HW1 1197   3.026   1.665   0.435 -0.1713  1.9168 -2.1878
  395SOL    HW2 1198   3.107   1.789   0.467  1.6027 -0.1164  1.8852
  396SOL     OW 1199   0.984   0.354   0.061 -0.3748  0.0347  0.2295
  396SOL    HW1 1200   1.041   0.282   0.087 -0.9535 -0.0988  1.1870
  396SOL    HW2 1201   0.965   0.337  -0.031 -1.3156 -1.6360  0.6752
  397SOL     OW 1202   2.823   2.430   0.877 -0.0555  0.9385 -0.2949
  397SOL    HW1 1203   2.906   2.436   0.831  0.3614  1.1217  0.4625
  397SOL    HW2 1204   2.763   2.483   0.825 -0.5747 -1.7848 -2.6559
  398SOL     OW 1205   1.414   2.344   0.798  0.2926  0.1898  0.3274
  398SOL    HW1 1206   1.321   2.325   0.798  0.4926 -0.8501 -0.0543
  398SOL    HW2 1207   1.438   2.345   0.891  0.2526 -1.4932  0.3954
  399SOL     OW 1208   1.776   0.995   0.220  0.2141  0.2378 -0.0661
  399SOL    HW1 1209   1.749   1.028   0.135  3.8259 -0.6824 -1.7714
  399SOL    HW2 1210   1.825   1.067   0.260 -0.7262  0.3729  0.8842
  400SOL     OW 1211   0.347   0.063   0.411  0.3027  0.0868 -0.2543
  400SOL    HW1 1212   0.381   0.052   0.322 -0.3453  0.6296 -0.5810
  400SOL    HW2 1213   0.370  -0.018   0.456  2.0144  0.4260 -0.4441
  401SOL     OW 1214   2.139   0.194   0.386  0.2805  0.0482 -0.2209
  401SOL    HW1 1215   2.100   0.275   0.418 -0.6739 -0.2785 -0.5326
  401SOL    HW2 1216   2.205   0.222   0.323 -0.4283  0.5677 -0.7363
  402SOL     OW 1217   3.101   2.810   1.265  0.2034  0.0788  0.7663
  402SOL    HW1 1218   3.195   2.791   1.268  0.4063  0.3085 -1.9163
  402SOL    HW2 1219   3.060   2.724   1.258  0.5201  0.0595 -1.7767
  403SOL     OW 1220   3.225   2.772   0.984 -0.0413 -0.1046  0.4525
  403SOL    HW1 1221   3.313   2.784   0.948 -0.2073 -2.8924 -1.1217
  403SOL    HW2 1222   3.238   2.772   1.079  1.3919  0.9537  0.2971
  404SOL     OW 1223   1.570   2.158   0.669  0.3180 -0.0117 -0.1269
  404SOL    HW1 1224   1.521   2.221   0.721  2.0297  0.4971  0.9622
  404SOL    HW2 1225   1.518   2.147   0.589 -2.4925 -0.9287  1.6763
  405SOL     OW 1226   1.705   0.630   1.462  0.1207 -0.2428  0.3672
  405SOL    HW1 1227   1.627   0.659   1.415  0.9370 -1.4426 -1.9271
  405SOL    HW2 1228   1.716   0.692   1.533 -1.8108  1.0914 -0.4372
  406SOL     OW 1229   1.429   0.851   1.742 -0.2352  0.3894  0.1971
  406SOL    HW1 1230   1.400   0.809   1.824 -0.0005  0.4891  0.3329
  406SOL    HW2 1231   1.403   0.789   1.674 -0.4284  0.3018  0.3480
  407SOL     OW 1232   3.629   1.278   1.530 -0.6027  0.2930  0.7729
  407SOL    HW1 1233   3.637   1.183   1.539 -1.4402  0.1843  0.4715
  407SOL    HW2 1234   3.699   1.304   1.471 -2.7921 -0.7030 -2.4960
  408SOL     OW 1235   2.894   1.133   0.714  0.0523 -0.6333  0.1363
  408SOL    HW1 1236   2.856   1.220   0.726  3.3365  1.1706 -1.3245
  408SOL    HW2 1237   2.935   1.136   0.627  1.0925 -3.3461  0.4267
  409SOL     OW 1238   3.368   2.677   1.244 -0.3066 -0.3029 -0.3088
  409SOL    HW1 1239   3.441   2.737   1.263  0.9989 -1.4087 -1.6023
  409SOL    HW2 1240   3.382   2.604   1.304 -1.4679  0.2960  0.7402
  410SOL     OW 1241   1.717   1.787   0.532  0.2306 -0.5570 -0.6855
  410SOL    HW1 1242   1.745   1.695   0.538  0.1734 -0.6073 -1.2037
  410SOL    HW2 1243   1.744   1.815   0.445  1.7702  0.4199  0.0606
  411SOL     OW 1244   1.732   0.866   1.099 -0.2980  0.2615 -0.5389
  411SOL    HW1 1245   1.738   0.942   1.158 -2.1676 -0.2116  0.3368
  411SOL    HW2 1246   1.640   0.863   1.073 -0.6237 -2.5524  0.6113
  412SOL     OW 1247   4.166   1.896   1.938  0.5084  0.7223 -0.1029
  412SOL    HW1 1248   4.130   1.944   1.864  1.0063 -0.4790 -1.1815
  412SOL    HW2 1249   4.105   1.824   1.952 -0.0062  1.3929  1.2081
  413SOL     OW 1250   1.261   1.734   1.294  0.6292  0.1508  0.0699
  413SOL    HW1 1251   1.333   1.783   1.334  0.6866 -0.3076  0.5330
  413SOL    HW2 1252   1.298   1.647   1.276  0.5029  0.2423 -0.6690
  414SOL     OW 1253   3.167   1.217   1.110 -0.1216 -0.5063  0.2401
  414SOL    HW1 1254   3.177   1.226   1.016 -0.6982  1.0996  0.2927
  414SOL    HW2 1255   3.238   1.271   1.147 -0.1489 -0.7911  0.7144
  415SOL     OW 1256   2.434   1.624   1.267 -0.0422  0.6394  0.1233
  415SOL    HW1 1257   2.452   1.680   1.192  0.7384  1.2851  0.7650
  415SOL    HW2 1258   2.511   1.567   1.274 -0.0203  0.7131  0.5406
  416SOL     OW 1259   1.708   1.370   0.754  0.1931  0.5817  0.5670
  416SOL    HW1 1260   1.709   1.282   0.716  2.1374  1.2575 -1.1336
  416SOL    HW2 1261   1.731   1.357   0.846  1.1144 -0.6600  0.1925
  417SOL     OW 1262   0.130   2.343   0.020  0.3532  0.1982 -0.3529
  417SOL    HW1 1263   0.168   2.280   0.082  1.4966 -0.3174 -1.5452
  417SOL    HW2 1264   0.035   2.327   0.025  0.3664  0.4093  1.4905
  418SOL     OW 1265   0.449   2.405   0.251 -0.9461 -0.2008  0.3553
  418SOL    HW1 1266   0.430   2.318   0.217 -3.2249 -1.4508  4.1423
  418SOL    HW2 1267   0.392   2.463   0.201 -1.1807 -1.2543 -0.6440
  419SOL     OW 1268   0.765   0.332   0.810  0.4785  0.2802 -0.3614
  419SOL    HW1 1269   0.672   0.328   0.832  0.4933 -0.2907 -0.4040
  419SOL    HW2 1270   0.767   0.378   0.726  0.2691  0.6528 -0.1660
  420SOL     OW 1271   3.253   2.505   0.852 -0.1980 -0.5750 -0.5350
  420SOL    HW1 1272   3.268   2.561   0.929 -2.4326 -3.3015  2.1302
  420SOL    HW2 1273   3.184   2.550   0.803 -0.4865  0.0366  0.4026
  421SOL     OW 1274   2.357   0.423   0.781 -0.3046  0.0564  0.4018
  421SOL    HW1 1275   2.421   0.493   0.795 -0.7214  0.2390  1.4860
  421SOL    HW2 1276   2.302   0.425   0.859 -0.6119 -1.1879  0.2396
  422SOL     OW 1277   2.713   0.367   1.260 -0.9872 -0.1505  0.4873
  422SOL    HW1 1278   2.744   0.370   1.170 -0.9719 -0.1058  0.4941
  422SOL    HW2 1279   2.663   0.286   1.265 -0.0931 -0.6976  0.7327
  423SOL     OW 1280   1.448   0.949   0.937 -0.0512  0.2836 -0.3385
  423SOL    HW1 1281   1.361   0.924   0.905  1.1802 -0.1502 -3.7029
  423SOL    HW2 1282   1.458   1.040   0.911  0.3712  0.4591  0.4038
  424SOL     OW 1283   2.274   2.052   1.452  0.0078 -0.1557  0.5587
  424SOL    HW1 1284   2.313   2.123   1.503 -2.1892  1.2772  0.3842
  424SOL    HW2 1285   2.220   2.004   1.516 -0.4774 -0.1151  0.1851
  425SOL     OW 1286   3.254   0.633   1.131  0.2506 -0.4044 -0.0922
  425SOL    HW1 1287   3.284   0.563   1.074 -1.1850 -2.1526  1.1577
  425SOL    HW2 1288   3.163   0.647   1.107  0.5631  1.2469 -0.4673
  426SOL     OW 1289   0.957   2.220   0.118  0.7704 -0.2381 -0.7257
  426SOL    HW1 1290   1.027   2.271   0.078  1.9277 -1.1952 -0.0080
  426SOL    HW2 1291   0.935   2.267   0.198  1.3868 -0.5282 -0.3850
  427SOL     OW 1292   0.675   0.644   0.175  0.4050 -0.2616  0.1814
  427SOL    HW1 1293   0.770   0.657   0.175  0.2853  0.7872 -0.7315
  427SOL    HW2 1294   0.663   0.551   0.195  1.6643 -0.5910 -0.4871
  428SOL     OW 1295   0.682   2.547   0.252  0.8832 -0.7507  0.6631
  428SOL    HW1 1296   0.751   2.484   0.271  0.3480 -2.0297 -1.3016
  428SOL    HW2 1297   0.605   2.493   0.234  0.4074  0.4224 -1.0804
  429SOL     OW 1298   0.741   0.436   0.562  0.0858 -0.0337  0.7112
  429SOL    HW1 1299   0.654   0.459   0.529  0.8352  0.6742 -0.8969
  429SOL    HW2 1300   0.777   0.518   0.595  0.6578  0.0051  0.0444
  430SOL     OW 1301   1.781   0.619   0.790  0.3297  0.5126 -0.5660
  430SOL    HW1 1302   1.842   0.551   0.818 -0.7405 -0.1465  0.2788
  430SOL    HW2 1303   1.819   0.701   0.822  1.4111  0.2711 -1.2051
  431SOL     OW 1304   1.894   1.423   1.852  0.1514 -0.1102 -0.4117
  431SOL    HW1 1305   1.805   1.422   1.887  0.9367 -0.4061  1.7440
  431SOL    HW2 1306   1.924   1.333   1.863  1.1406  0.2703  0.1334
  432SOL     OW 1307   2.233   2.316   0.241  0.6438 -0.0635  0.1055
  432SOL    HW1 1308   2.210   2.408   0.259  2.1145  0.4605 -0.5856
  432SOL    HW2 1309   2.171   2.289   0.173  0.5643  0.5960 -0.0930
  433SOL     OW 1310   2.545   2.099   0.865 -0.0378 -0.2779 -0.1627
  433SOL    HW1 1311   2.469   2.119   0.920  1.2072 -1.9819  2.3704
  433SOL    HW2 1312   2.512   2.037   0.800 -0.6463 -1.8351  1.5696
  434SOL     OW 1313   2.017   1.279   0.586 -1.3306 -0.0836 -0.3828
  434SOL    HW1 1314   2.005   1.188   0.561 -0.6962 -1.2474  2.9207
  434SOL    HW2 1315   2.082   1.313   0.524  0.2067 -2.6337 -0.3218
  435SOL     OW 1316   2.321   2.781   1.205 -0.1480 -0.5418 -0.5326
  435SOL    HW1 1317   2.234   2.818   1.219  0.2347  0.7154 -1.3235
  435SOL    HW2 1318   2.337   2.726   1.282 -1.3242 -0.1809 -0.0179
  436SOL     OW 1319   3.493   0.058   1.953  0.1860  0.5598 -0.1309
  436SOL    HW1 1320   3.585   0.042   1.973 -0.1299  0.4257  1.3891
  436SOL    HW2 1321   3.446  -0.011   2.001 -0.6578 -0.0550 -1.7730
  437SOL     OW 1322   2.809   1.043   1.391 -0.3014  0.5261 -0.0496
  437SOL    HW1 1323   2.751   0.971   1.415  0.8838 -0.1310  0.8942
  437SOL    HW2 1324   2.894   1.003   1.378  0.5519  1.8337  1.1973
  438SOL     OW 1325   1.965   2.712   1.422 -0.0634  0.1289 -0.3434
  438SOL    HW1 1326   1.957   2.780   1.488  2.0539 -0.9537  1.1723
  438SOL    HW2 1327   1.919   2.747   1.345 -1.3613  2.0496  1.2094
  439SOL     OW 1328   1.949   1.667   1.715  0.0532  0.4636  0.2917
  439SOL    HW1 1329   1.899   1.688   1.794  1.1788 -1.0159  1.4547
  439SOL    HW2 1330   1.961   1.572   1.718  0.5308  0.4285 -1.4222
  440SOL     OW 1331   2.349   2.793   0.933 -0.2762  0.8615 -0.0204
  440SOL    HW1 1332   2.308   2.808   1.018  0.8273 -1.4231  1.0007
  440SOL    HW2 1333   2.442   2.780   0.953 -0.0949 -0.3496 -1.4751
  441SOL     OW 1334   2.117   1.596   0.761 -0.1464  0.0912  0.0997
  441SOL    HW1 1335   2.096   1.627   0.849 -0.8940 -0.0560 -0.0253
  441SOL    HW2 1336   2.075   1.511   0.755  1.0606 -0.5285  0.0812
  442SOL     OW 1337   2.095   1.150   1.370  0.7931 -0.1444 -0.1018
  442SOL    HW1 1338   2.095   1.211   1.297  0.6579 -1.6567 -1.4162
  442SOL    HW2 1339   2.162   1.085   1.347  0.4411 -0.8825  0.9081
  443SOL     OW 1340   2.340   1.454   1.966 -0.0352 -0.2106 -0.2781
  443SOL    HW1 1341   2.253   1.453   2.005 -0.3395 -1.1066 -0.9349
  443SOL    HW2 1342   2.327   1.490   1.878  0.2667 -0.2282 -0.3320
  444SOL     OW 1343   1.459   0.097   1.993  0.7423 -0.3149 -0.2953
  444SOL    HW1 1344   1.475   0.180   1.949 -0.0466 -0.3473 -0.6617
  444SOL    HW2 1345   1.520   0.036   1.952 -1.6839 -0.9890 -3.3141
  445SOL     OW 1346   2.749   2.011   0.996  0.2663 -0.1308 -0.1482
  445SOL    HW1 1347   2.744   2.079   1.063  1.8800 -0.0835 -0.0287
  445SOL    HW2 1348   2.675   2.029   0.938 -0.2283  0.7940  0.7310
  446SOL     OW 1349   3.555   0.052   1.671 -0.7598 -0.1233 -0.1145
  446SOL    HW1 1350   3.599  -0.021   1.629 -2.9993 -0.1667 -2.6149
  446SOL    HW2 1351   3.561   0.033   1.765  3.4198 -0.6245 -0.3295
  447SOL     OW 1352   2.415   0.843   0.930 -0.4176  0.4805  0.3158
  447SOL    HW1 1353   2.489   0.805   0.978 -1.4493  1.2343  2.6251
  447SOL    HW2 1354   2.424   0.937   0.944 -1.1401  0.6700 -0.4413
  448SOL     OW 1355   1.598   0.418   0.173 -0.6145  0.8877 -0.2186
  448SOL    HW1 1356   1.558   0.420   0.260 -0.3348 -0.6038 -0.0346
  448SOL    HW2 1357   1.651   0.498   0.169 -1.0245  1.2232  0.7883
  449SOL     OW 1358   0.970   1.279   1.014 -0.4510 -0.0573 -0.3231
  449SOL    HW1 1359   0.935   1.236   1.092 -1.4430 -0.8789 -1.1995
  449SOL    HW2 1360   0.995   1.208   0.956  4.1531  0.3759  0.7527
  450SOL     OW 1361   3.626   0.974   1.821 -0.0987  0.1290 -0.4129
  450SOL    HW1 1362   3.606   0.880   1.824 -0.0797  0.1429  1.2424
  450SOL    HW2 1363   3.689   0.983   1.751 -1.3562 -0.8389 -1.7257
  451SOL     OW 1364   2.367   1.417   0.028 -0.5462  0.1706 -0.0314
  451SOL    HW1 1365   2.329   1.462   0.104 -1.3072  1.3567 -1.0782
  451SOL    HW2 1366   2.442   1.470   0.004 -1.0374  0.5065 -0.8520
  452SOL     OW 1367   1.368   2.641   1.574  0.0431 -0.3815  0.5369
  452SOL    HW1 1368   1.335   2.581   1.640 -1.8327  1.3888  1.3428
  452SOL    HW2 1369   1.372   2.589   1.494 -0.8522 -1.7439  1.3365
  453SOL     OW 1370   2.976   1.002   0.986 -0.3798  0.4858  0.1817
  453SOL    HW1 1371   2.883   1.024   0.980 -0.7079 -0.5586  1.1014
  453SOL    HW2 1372   3.008   1.054   1.059 -0.0151  1.5090 -0.6818
  454SOL     OW 1373   2.014   0.425   0.096 -0.1496  0.2392 -0.1412
  454SOL    HW1 1374   2.089   0.367   0.083  0.6738  0.3644  3.1574
  454SOL    HW2 1375   1.938   0.368   0.087  0.3032 -0.0835 -2.5893
  455SOL     OW 1376   1.485   0.078   1.240  0.5324 -0.6637 -0.4850
  455SOL    HW1 1377   1.444   0.142   1.298  2.0210 -0.7463  0.7162
  455SOL    HW2 1378   1.456   0.102   1.152  1.5627  2.0914 -0.1582
  456SOL     OW 1379   3.096   1.194   0.521 -0.3367 -0.0345  0.1735
  456SOL    HW1 1380   3.086   1.244   0.440 -0.8290  0.0168  0.2592
  456SOL    HW2 1381   3.143   1.115   0.496  1.4759  0.9824  0.2376
  457SOL     OW 1382   2.724   1.108   0.962 -0.2678  0.0996  0.0401
  457SOL    HW1 1383   2.760   1.145   0.881 -0.7208  0.9294  0.2041
  457SOL    HW2 1384   2.704   1.185   1.016 -0.0434 -0.4449  0.9096
  458SOL     OW 1385   2.034   1.331   0.871  0.6471  0.7917  0.0193
  458SOL    HW1 1386   2.024   1.300   0.781  0.6167  1.6893 -0.2924
  458SOL    HW2 1387   1.945   1.343   0.903  0.6424  1.9378 -0.3610
  459SOL     OW 1388   2.645   0.432   0.386  0.3594 -0.4287  0.5566
  459SOL    HW1 1389   2.671   0.498   0.322  0.2194 -0.0644  0.8755
  459SOL    HW2 1390   2.718   0.428   0.447  0.9270 -1.4758 -0.1589
  460SOL     OW 1391   0.429   2.183   0.082 -0.0459  0.1844 -0.8483
  460SOL    HW1 1392   0.408   2.141  -0.001  0.1932 -1.3480 -0.1762
  460SOL    HW2 1393   0.519   2.157   0.100  0.0216  0.7860 -0.2732
  461SOL     OW 1394   3.487   2.486   1.418 -0.6142 -0.5632  0.0938
  461SOL    HW1 1395   3.551   2.454   1.482 -0.7066  1.3145  1.1798
  461SOL    HW2 1396   3.474   2.412   1.358  2.8011 -0.9370 -0.3758
  462SOL     OW 1397   2.078   2.486   0.581  0.1756 -0.1798 -0.5645
  462SOL    HW1 1398   1.990   2.519   0.602  0.6238  0.8845 -0.2868
  462SOL    HW2 1399   2.101   2.531   0.500  1.0916  0.7976  0.2065
  463SOL     OW 1400   0.629   0.769   0.428  0.4343 -0.3190 -0.5331
  463SOL    HW1 1401   0.598   0.695   0.479  1.4990  0.3221  1.1228
  463SOL    HW2 1402   0.634   0.736   0.338 -0.6060 -1.7552 -0.0930
  464SOL     OW 1403   3.342   0.767   1.816 -0.4746 -0.4784  0.2681
  464SOL    HW1 1404   3.272   0.767   1.751 -0.3989  1.7743  0.1235
  464SOL    HW2 1405   3.422   0.752   1.765 -0.2071  2.8905 -0.5549
  465SOL     OW 1406   1.545   2.572   0.699 -0.3716 -0.2722 -0.1535
  465SOL    HW1 1407   1.521   2.481   0.717 -1.6571  0.0482 -0.1229
  465SOL    HW2 1408   1.533   2.581   0.605 -1.6007  0.2191  0.0356
  466SOL     OW 1409   2.724   1.215   1.740  0.2121  0.4276  0.5894
  466SOL    HW1 1410   2.762   1.129   1.722  1.4503  0.9490  0.6532
  466SOL    HW2 1411   2.789   1.259   1.794 -1.0554  0.8756  1.8161
  467SOL     OW 1412   1.764   2.313   0.491 -0.4347  0.4012 -0.2034
  467SOL    HW1 1413   1.844   2.263   0.471  0.7499  1.6941  1.0052
  467SOL    HW2 1414   1.720   2.261   0.558 -0.1727  0.0974 -0.2611
  468SOL     OW 1415   1.088   0.606   0.055 -0.7339 -0.0573  0.9562
  468SOL    HW1 1416   1.013   0.558   0.090 -1.2526 -0.0803 -0.1648
  468SOL    HW2 1417   1.159   0.542   0.056 -1.1600 -0.5539  0.4639
  469SOL     OW 1418   3.020   2.226   0.322 -0.3040  0.0179  0.4363
  469SOL    HW1 1419   3.073   2.233   0.401 -0.6318 -1.8378  0.8634
  469SOL    HW2 1420   3.066   2.163   0.267 -0.2620  1.0225 -0.7345
  470SOL     OW 1421   2.834   0.782   0.859 -0.4222 -0.0612 -0.1041
  470SOL    HW1 1422   2.794   0.813   0.778 -0.5852 -2.7582 -1.1451
  470SOL    HW2 1423   2.928   0.800   0.848 -0.2526 -1.6145 -1.5501
  471SOL     OW 1424   2.523   1.782   1.476 -0.0641 -0.2576 -0.2063
  471SOL    HW1 1425   2.460   1.736   1.421 -0.1087  0.7906 -1.0684
  471SOL    HW2 1426   2.476   1.798   1.559 -2.0356  2.8657 -1.7020
  472SOL     OW 1427   2.388   2.597   0.705  0.1120  0.2362  0.3599
  472SOL    HW1 1428   2.372   2.667   0.768 -1.9825 -1.4465  1.8779
  472SOL    HW2 1429   2.300   2.568   0.679  0.8957 -1.7106 -0.3283
  473SOL     OW 1430   2.209   0.168   1.597 -0.1410  0.0617 -0.6570
  473SOL    HW1 1431   2.118   0.141   1.591 -0.1253  0.3818 -3.7640
  473SOL    HW2 1432   2.221   0.231   1.525  2.2932  0.7958  0.2651
  474SOL     OW 1433   0.993   0.789   0.297  0.0586  0.1140 -0.1705
  474SOL    HW1 1434   1.000   0.716   0.358 -0.4120  2.5605  3.1069
  474SOL    HW2 1435   1.073   0.786   0.245  1.0263 -1.5073  1.3240
  475SOL     OW 1436   1.898   0.116   1.563  0.6448 -0.1244  0.3246
  475SOL    HW1 1437   1.857   0.190   1.519  1.6297 -0.8077 -1.8648
  475SOL    HW2 1438   1.841   0.099   1.638  0.6830  3.1384  1.2450
  476SOL     OW 1439   1.358   2.305   0.308 -0.3011 -0.1931  0.2317
  476SOL    HW1 1440   1.441   2.275   0.343  0.1210 -1.0739 -1.4114
  476SOL    HW2 1441   1.376   2.325   0.216 -2.0509 -1.1483 -0.3768
  477SOL     OW 1442   2.201   0.290   1.334 -0.1792 -0.4553  0.0135
  477SOL    HW1 1443   2.245   0.263   1.254  0.1175 -0.6426  0.2340
  477SOL    HW2 1444   2.113   0.316   1.307 -0.1697 -0.7842 -0.3304
  478SOL     OW 1445   2.289   1.726   0.589  0.2970  0.5409 -0.0702
  478SOL    HW1 1446   2.199   1.699   0.603  0.0366  0.9471 -0.9093
  478SOL    HW2 1447   2.341   1.660   0.635 -0.4070  0.0465  0.0315
  479SOL     OW 1448   3.065   0.298   1.425  0.8506 -0.4824  0.1426
  479SOL    HW1 1449   3.029   0.214   1.455 -1.3551 -0.3832 -1.9685
  479SOL    HW2 1450   3.152   0.276   1.392 -0.6484 -2.6235 -2.9177
  480SOL     OW 1451   2.840   0.497   0.578  0.3164  0.4531 -0.0938
  480SOL    HW1 1452   2.845   0.584   0.538  0.3336  1.3461  1.7604
  480SOL    HW2 1453   2.931   0.469   0.584  0.2634 -0.0723 -1.4212
  481SOL     OW 1454   2.077   2.158   1.164  0.2577  0.1361  0.0800
  481SOL    HW1 1455   2.098   2.198   1.249 -0.9272 -2.5546  1.7886
  481SOL    HW2 1456   1.992   2.195   1.141  0.8863  1.3866 -0.3195
  482SOL     OW 1457   2.472   0.086   1.614  0.0541  0.7143 -0.1483
  482SOL    HW1 1458   2.377   0.085   1.622  0.0081  0.6332 -0.7065
  482SOL    HW2 1459   2.497   0.171   1.650 -0.1748  0.4912  0.5515
  483SOL     OW 1460   2.388   0.378   0.475 -0.1565 -0.3025 -0.5224
  483SOL    HW1 1461   2.473   0.420   0.460  1.4563 -2.2727  2.2344
  483SOL    HW2 1462   2.361   0.409   0.562 -1.7114 -0.6306 -0.8583
  484SOL     OW 1463   2.340   2.101  -0.019  0.1673 -0.2405 -0.2835
  484SOL    HW1 1464   2.408   2.163   0.004 -0.4292  0.0917  0.6263
  484SOL    HW2 1465   2.277   2.105   0.053 -0.3784 -1.1789 -0.6783
  485SOL     OW 1466   1.429   1.304   1.078 -0.2456  0.8491 -0.3526
  485SOL    HW1 1467   1.451   1.388   1.036 -0.2869  1.2338  0.3742
  485SOL    HW2 1468   1.402   1.247   1.006 -0.7737  1.6385 -0.7924
  486SOL     OW 1469   2.085   2.058   0.787  0.0210 -0.7662  0.5458
  486SOL    HW1 1470   2.066   1.994   0.719 -0.5801 -1.1641  1.0807
  486SOL    HW2 1471   2.002   2.102   0.804  0.5512  0.6577 -0.2902
  487SOL     OW 1472   3.045   2.296   1.761 -0.9034 -0.4094  0.2511
  487SOL    HW1 1473   3.061   2.207   1.790  0.0740 -0.0975  0.6875
  487SOL    HW2 1474   3.054   2.349   1.840 -0.1399  0.2300 -0.2584
  488SOL     OW 1475   4.057   2.789   1.866 -0.2750  0.6340  0.0847
  488SOL    HW1 1476   4.068   2.705   1.912 -0.8856  0.5810  0.1530
  488SOL    HW2 1477   4.137   2.837   1.885  1.7192 -1.2251 -2.8173
  489SOL     OW 1478   2.765   2.316   0.373  0.1332  0.0442 -0.1540
  489SOL    HW1 1479   2.859   2.304   0.359  0.4818 -0.9012  2.3782
  489SOL    HW2 1480   2.753   2.298   0.467 -2.2056  2.5895  0.1434
  490SOL     OW 1481   2.257   2.809   0.183  0.3222  0.3641  0.5675
  490SOL    HW1 1482   2.293   2.735   0.133 -0.3892  0.6669 -0.4366
  490SOL    HW2 1483   2.329   2.838   0.239  0.9699 -0.3589  0.1308
  491SOL     OW 1484   2.790   0.115   0.439  0.2817  0.0139  0.2095
  491SOL    HW1 1485   2.833   0.038   0.476  0.2486  0.0539  0.3354
  491SOL    HW2 1486   2.701   0.111   0.473  0.2409  0.0322  0.1027
  492SOL     OW 1487   2.649   0.581   0.764  0.2964 -0.5148 -0.4317
  492SOL    HW1 1488   2.714   0.535   0.711  0.0286 -0.2002 -1.0537
  492SOL    HW2 1489   2.695   0.606   0.843  1.1249  0.2942 -1.1514
  493SOL     OW 1490   1.890   2.539   0.038  0.0018  0.4189 -0.4582
  493SOL    HW1 1491   1.913   2.621   0.082 -0.0108  0.2563 -0.1441
  493SOL    HW2 1492   1.803   2.554   0.001  0.0629  0.5963 -0.5298
  494SOL     OW 1493   1.823   1.045   0.845  0.0041  0.4273 -0.6269
  494SOL    HW1 1494   1.885   0.973   0.855 -2.1256 -1.2435  1.9417
  494SOL    HW2 1495   1.772   1.023   0.767  0.5399  0.1242 -0.8934
  495SOL     OW 1496   1.490   0.052   1.556 -0.1534  0.3539  0.1620
  495SOL    HW1 1497   1.405   0.061   1.598 -1.1758 -0.7669 -1.5417
  495SOL    HW2 1498   1.502  -0.043   1.546  1.8787  0.4103  1.4345
  496SOL     OW 1499   0.812   0.630   0.761  0.1517  0.3482  0.0656
  496SOL    HW1 1500   0.878   0.579   0.808  1.5107  2.9179  1.2143
  496SOL    HW2 1501   0.857   0.711   0.737 -0.8542 -0.2356 -4.7146
  497SOL     OW 1502   3.069   0.907   0.712  0.3506 -0.0391  0.4633
  497SOL    HW1 1503   3.117   0.902   0.795  0.9577 -1.5321  0.0611
  497SOL    HW2 1504   3.030   0.994   0.712  0.4235  0.0332  2.2606
  498SOL     OW 1505   1.885   0.637  -0.000 -0.1579 -0.2353 -0.4878
  498SOL    HW1 1506   1.930   0.721   0.001  1.4100 -1.0391 -0.7243
  498SOL    HW2 1507   1.949   0.575   0.034 -2.2517 -0.9250  2.5881
  499SOL     OW 1508   3.559   1.220   1.906 -0.1074  0.2280  0.2349
  499SOL    HW1 1509   3.475   1.209   1.951  0.1059 -0.1496  0.5525
  499SOL    HW2 1510   3.587   1.131   1.884  0.5602  0.2828  0.8033
  500SOL     OW 1511   2.972   0.633   1.088 -0.4488 -0.9498  0.5095
  500SOL    HW1 1512   2.946   0.549   1.126  1.9324 -1.3574  1.4053
  500SOL    HW2 1513   2.908   0.648   1.019 -0.9744 -3.4865  0.3296
  501SOL     OW 1514   1.869   1.542   0.188  0.1289  0.2731  0.3649
  501SOL    HW1 1515   1.864   1.540   0.283 -0.4098  1.0067  0.3606
  501SOL    HW2 1516   1.785   1.506   0.158  0.4271 -0.2649  0.1605
  502SOL     OW 1517   0.565   1.807   0.230  0.2775  0.1340 -0.8151
  502SOL    HW1 1518   0.618   1.867   0.176  1.5074  1.7558  1.9629
  502SOL    HW2 1519   0.628   1.770   0.292 -1.1807 -1.0966 -0.0354
  503SOL     OW 1520   2.735   2.205   0.628  0.7309  0.4750  0.6129
  503SOL    HW1 1521   2.771   2.190   0.715  0.6478  2.3440  1.0134
  503SOL    HW2 1522   2.657   2.258   0.643 -0.4865 -0.9048 -0.4797
  504SOL     OW 1523   0.827   1.001   0.191 -0.1112  0.4692  0.4625
  504SOL    HW1 1524   0.772   0.978   0.265 -0.2963  1.0870  0.5256
  504SOL    HW2 1525   0.907   0.949   0.202  1.0835  2.5584  2.6875
  505SOL     OW 1526   2.284   0.979   0.652 -0.5246 -0.1763  0.1264
  505SOL    HW1 1527   2.195   0.946   0.662 -0.8758  1.1051  1.3906
  505SOL    HW2 1528   2.337   0.922   0.708 -0.7510 -0.0937  0.4250
  506SOL     OW 1529   2.031   0.915   0.098  0.2783 -0.3035  0.1796
  506SOL    HW1 1530   1.949   0.929   0.145  0.0305  0.2952 -0.4102
  506SOL    HW2 1531   2.098   0.916   0.166 -0.1092  0.1412  0.5640
  507SOL     OW 1532   1.398   1.313   1.840 -0.1345  0.2804  0.4536
  507SOL    HW1 1533   1.348   1.348   1.767 -2.4092 -1.4673  1.0581
  507SOL    HW2 1534   1.332   1.286   1.904  1.6401 -1.0047  1.8603
  508SOL     OW 1535   2.758   0.184   1.725  0.1322  0.0237 -0.3232
  508SOL    HW1 1536   2.801   0.114   1.774 -0.5682  0.0308  0.3275
  508SOL    HW2 1537   2.828   0.224   1.673  0.9096  0.0591  0.7171
  509SOL     OW 1538   2.736   2.304   1.118 -0.0771  0.2236  0.2710
  509SOL    HW1 1539   2.641   2.303   1.128 -0.1499  2.5284  0.2200
  509SOL    HW2 1540   2.751   2.335   1.028  0.6388  4.5080  1.6653
  510SOL     OW 1541   2.550   1.457   0.505  0.1188 -0.3585 -0.0767
  510SOL    HW1 1542   2.632   1.421   0.469 -0.6868 -0.7850 -1.5639
  510SOL    HW2 1543   2.554   1.550   0.484  1.2016  0.0812  1.8341
  511SOL     OW 1544   1.465   1.639   0.438 -0.1748  0.0038  0.2174
  511SOL    HW1 1545   1.465   1.670   0.348 -0.8375  1.3690  0.6727
  511SOL    HW2 1546   1.526   1.697   0.484 -0.3918 -0.2145  0.7979
  512SOL     OW 1547   1.171   2.249   0.862 -0.0448  0.0203  1.5010
  512SOL    HW1 1548   1.110   2.271   0.932  0.3365  0.2295  1.7721
  512SOL    HW2 1549   1.184   2.154   0.869  1.2911  0.2554  2.8056
  513SOL     OW 1550   2.001   0.352   1.734  0.0212 -0.3504 -0.1720
  513SOL    HW1 1551   1.958   0.365   1.650 -1.7456 -0.2644  0.7049
  513SOL    HW2 1552   2.071   0.417   1.736 -0.3092  0.0599 -1.3136
  514SOL     OW 1553   0.455   1.482   0.510 -0.1226 -0.5998 -0.0017
  514SOL    HW1 1554   0.395   1.549   0.476 -0.6313 -0.9685  0.1596
  514SOL    HW2 1555   0.411   1.399   0.491 -2.0276 -0.8447  4.2643
  515SOL     OW 1556   1.605   2.365   1.063 -0.0073  0.2088  0.2545
  515SOL    HW1 1557   1.618   2.457   1.084  0.9468 -0.4519  3.0059
  515SOL    HW2 1558   1.520   2.344   1.102  1.0033 -0.6484  2.1197
  516SOL     OW 1559   0.863   0.120   0.958  0.5376  0.1979 -0.7192
  516SOL    HW1 1560   0.838   0.198   0.909 -0.2928 -0.6438 -1.6931
  516SOL    HW2 1561   0.787   0.062   0.951  0.8508 -0.4108  0.6053
  517SOL     OW 1562   2.299   2.202   0.999 -0.0818  0.2208 -0.2207
  517SOL    HW1 1563   2.264   2.272   0.944 -2.1469  0.4928  1.3203
  517SOL    HW2 1564   2.227   2.180   1.059  1.6520 -0.8715  1.5859
  518SOL     OW 1565   2.957   2.704   0.228  0.1052  0.4847  0.0586
  518SOL    HW1 1566   3.016   2.661   0.290 -0.2008  0.1885  0.1513
  518SOL    HW2 1567   2.950   2.794   0.259  1.8006  0.9919 -0.8883
  519SOL     OW 1568   1.673   0.700   0.564  0.2987  0.2374 -0.0201
  519SOL    HW1 1569   1.735   0.674   0.632  1.1394  0.0175 -0.8447
  519SOL    HW2 1570   1.595   0.647   0.580  0.3898  0.3536  0.8955
  520SOL     OW 1571   0.297   2.542   0.068  0.3496 -0.6922  0.3742
  520SOL    HW1 1572   0.262   2.628   0.089  0.1093 -0.3417 -1.3048
  520SOL    HW2 1573   0.224   2.495   0.028  0.9678 -0.9942 -0.4369
  521SOL     OW 1574   3.162   2.052   0.601 -0.1925  0.5552 -0.3341
  521SOL    HW1 1575   3.152   2.144   0.574 -0.2367  0.1524 -1.7781
  521SOL    HW2 1576   3.107   2.044   0.679 -1.1463  1.4795 -0.8771
  522SOL     OW 1577   3.145   2.720   1.786 -0.7386 -0.7420 -0.4165
  522SOL    HW1 1578   3.108   2.748   1.702  0.9727  1.6145 -0.4964
  522SOL    HW2 1579   3.236   2.697   1.766  0.4386  2.1428  1.0324
  523SOL     OW 1580   2.283   1.494   1.684  0.2449 -0.1059  0.5061
  523SOL    HW1 1581   2.201   1.447   1.699  1.1264 -1.3097  1.8146
  523SOL    HW2 1582   2.340   1.430   1.641  0.5936  0.6221 -0.1323
  524SOL     OW 1583   2.627  -0.010   0.992  0.4742 -0.2942  0.1246
  524SOL    HW1 1584   2.722  -0.024   0.997  1.1798  1.9460 -3.3336
  524SOL    HW2 1585   2.606   0.040   1.070  2.8188  1.7064 -0.3861
  525SOL     OW 1586   1.536   1.506   0.926 -0.0053  0.1121  0.6442
  525SOL    HW1 1587   1.563   1.478   0.839 -2.2013 -0.9774  0.2371
  525SOL    HW2 1588   1.557   1.599   0.930  0.7034  0.0288 -0.8107
  526SOL     OW 1589   3.371   1.119   1.611 -0.5424 -0.1345 -0.0908
  526SOL    HW1 1590   3.395   1.211   1.620 -1.7563  0.0717  1.4034
  526SOL    HW2 1591   3.408   1.077   1.689  0.2286 -0.9857 -0.8889
   2.82020   2.82020   1.99418   0.00000   0.00000   0.00000   0.00000   1.41010   1.41010
