alanine dipeptide in vacuum in water
 1591
    1ACE   HH31    1   0.684   2.767   0.042 -0.1770  2.0148  1.0473
    1ACE    CH3    2   0.576   2.762   0.028 -0.0064 -0.5725  0.0740
    1ACE   HH32    3   0.541   2.848  -0.028 -0.7839 -0.4001  0.8081
    1ACE   HH33    4   0.539   2.765   0.130  2.3469  0.5291  0.9603
    1ACE      C    5   0.533   2.634  -0.037  0.0761 -0.1236  0.6536
    1ACE      O    6   0.615   2.553  -0.072  0.1913  0.2889  0.7996
    2ALA      N    7   0.402   2.620  -0.052  0.2274  0.5037 -0.1080
    2ALA      H    8   0.352   2.703  -0.023  1.7068  1.0681  0.9544
    2ALA     CA    9   0.339   2.500  -0.114 -0.0693 -0.1253 -0.3689
    2ALA     HA   10   0.414   2.434  -0.158  0.6802 -0.4104  1.2590
    2ALA     CB   11   0.298   2.412   0.010 -0.0364  0.8526 -0.4604
    2ALA    HB1   12   0.221   2.456   0.073 -0.6469 -2.6184  1.4617
    2ALA    HB2   13   0.265   2.314  -0.026 -2.5271  0.9329  1.3807
    2ALA    HB3   14   0.388   2.409   0.071 -1.7640  1.7369  2.3163
    2ALA      C   15   0.234   2.518  -0.225  0.3493  0.0078 -0.2783
    2ALA      O   16   0.241   2.478  -0.344  0.0078 -0.3728  0.4037
    3NME      N   17   0.133   2.601  -0.186  0.3585  0.4741 -0.5980
    3NME      H   18   0.123   2.620  -0.087 -2.9977  1.1075 -0.9661
    3NME    CH3   19   0.032   2.664  -0.267  0.0432 -0.3614 -0.3807
    3NME   HH31   20   0.065   2.664  -0.371  1.2599 -0.8258 -0.0060
    3NME   HH32   21   0.006   2.764  -0.232  0.0769  0.6127 -2.8671
    3NME   HH33   22  -0.054   2.598  -0.257 -0.1010 -0.0610  0.3966
    4SOL     OW   23   1.258   1.007   1.208 -0.1101 -0.0013 -0.0020
    4SOL    HW1   24   1.339   0.997   1.259  1.4364  0.8789 -2.1338
    4SOL    HW2   25   1.252   1.101   1.191 -2.3093  0.1257  1.1185
    5SOL     OW   26   2.215   1.740   0.148  0.4716 -0.0421  0.0086
    5SOL    HW1   27   2.286   1.798   0.119  1.0857 -0.3203  0.9130
    5SOL    HW2   28   2.147   1.800   0.179  0.2699  0.2280 -0.9050
    6SOL     OW   29   1.614   1.460   1.972  0.2253  0.7251  0.7018
    6SOL    HW1   30   1.670   1.533   1.946  0.8721  0.5441  1.5385
    6SOL    HW2   31   1.640   1.442   2.063  0.1695 -0.6277  0.4568
    7SOL     OW   32   1.510   1.942   1.426  0.1727  0.1036  0.1092
    7SOL    HW1   33   1.428   1.922   1.470 -1.3433 -2.0788 -3.3033
    7SOL    HW2   34   1.504   2.036   1.407 -1.7212 -0.0584 -0.3095
    8SOL     OW   35   0.467   2.656   0.523 -0.2094  0.0772  0.6969
    8SOL    HW1   36   0.485   2.568   0.492  1.3202  0.5592  0.1076
    8SOL    HW2   37   0.379   2.651   0.561 -0.1311 -1.6903  0.7250
    9SOL     OW   38   2.627   2.411   0.549 -0.0175  0.0665 -0.3359
    9SOL    HW1   39   2.677   2.486   0.582 -0.4190 -0.6154  1.9822
    9SOL    HW2   40   2.654   2.404   0.457  1.9465  1.4861  0.0483
   10SOL     OW   41   3.042   0.768   1.395  0.3857 -0.2874 -0.4924
   10SOL    HW1   42   3.025   0.721   1.476  0.1791 -1.1874 -1.0363
   10SOL    HW2   43   3.113   0.829   1.416 -0.4208  0.2971  0.6385
   11SOL     OW   44   1.601   2.822   0.123  0.0165  0.2463 -0.8205
   11SOL    HW1   45   1.601   2.812   0.028  2.5345 -0.6654 -0.7967
   11SOL    HW2   46   1.645   2.743   0.156 -1.5229  0.1293  1.1901
   12SOL     OW   47   1.250   1.925   1.572 -0.0934  0.5525 -0.0849
   12SOL    HW1   48   1.171   1.876   1.594 -1.0652  0.0787 -3.9599
   12SOL    HW2   49   1.238   2.011   1.613 -0.6541 -0.7323  2.6750
   13SOL     OW   50   1.302   2.168   1.688 -0.1189 -0.2387  0.1145
   13SOL    HW1   51   1.287   2.192   1.780  0.8381 -0.4006  0.3184
   13SOL    HW2   52   1.397   2.173   1.677 -0.0754 -1.8695 -0.4116
   14SOL     OW   53   1.416   1.210   1.033 -0.1574 -0.5479 -0.1543
   14SOL    HW1   54   1.492   1.266   1.046  0.8856 -1.7582 -0.8227
   14SOL    HW2   55   1.449   1.134   0.985 -1.7551 -1.1857 -0.3317
   15SOL     OW   56   2.024   1.393   0.151  0.0101 -0.2293 -0.5066
   15SOL    HW1   57   2.019   1.364   0.242 -1.6907  0.1790 -0.4450
   15SOL    HW2   58   2.117   1.414   0.138  0.0988  0.8632  1.4953
   16SOL     OW   59   1.168   1.227   1.437  0.0914  0.7741  0.2562
   16SOL    HW1   60   1.140   1.240   1.528  0.0766  0.2402  0.3270
   16SOL    HW2   61   1.252   1.182   1.444 -0.2190  0.1511 -0.0051
   17SOL     OW   62   0.788   1.539   0.488  0.2370 -0.9290  0.3832
   17SOL    HW1   63   0.723   1.473   0.511  0.2789 -1.8778 -1.9183
   17SOL    HW2   64   0.858   1.527   0.552 -0.9281 -1.2583  1.6406
   18SOL     OW   65   1.262   1.617   0.656 -0.0925  0.6917  0.4250
   18SOL    HW1   66   1.223   1.703   0.640 -4.8918 -0.9404  1.4395
   18SOL    HW2   67   1.235   1.565   0.580 -0.4774 -0.7288  1.4992
   19SOL     OW   68   1.485   1.060   0.247 -0.2119 -0.1938  0.1918
   19SOL    HW1   69   1.490   1.079   0.341 -0.3228 -3.0960  0.9057
   19SOL    HW2   70   1.575   1.043   0.221 -0.1117  1.1565 -0.3996
   20SOL     OW   71   3.253   2.444   1.420  0.1715 -0.7173  0.5895
   20SOL    HW1   72   3.279   2.512   1.359 -0.6836 -0.9009 -0.0015
   20SOL    HW2   73   3.188   2.392   1.372  1.5091 -2.5617  0.6601
   21SOL     OW   74   2.870   1.056   1.208  0.5961 -0.2546  0.6741
   21SOL    HW1   75   2.856   0.974   1.160  0.3536 -0.2876  0.7987
   21SOL    HW2   76   2.907   1.116   1.143 -1.4858  0.2906 -0.0875
   22SOL     OW   77   2.689   1.360   1.370  0.1245 -0.1709  0.0189
   22SOL    HW1   78   2.705   1.285   1.428 -0.2349  0.7405  1.3393
   22SOL    HW2   79   2.635   1.420   1.422 -0.3702  0.6083 -1.3354
   23SOL     OW   80   3.178   1.656   1.023  0.1103 -0.2896 -0.6001
   23SOL    HW1   81   3.153   1.593   1.091 -0.4319 -0.1304 -0.6430
   23SOL    HW2   82   3.099   1.665   0.970  0.0841  0.6466 -0.4209
   24SOL     OW   83   1.916   0.455   1.495  0.1112  0.5001 -0.4383
   24SOL    HW1   84   1.900   0.550   1.489  4.3768  1.5314  0.4161
   24SOL    HW2   85   1.932   0.428   1.405 -2.4953  0.1726 -0.8655
   25SOL     OW   86   2.727   1.565   0.614  0.6953 -0.3527  0.4278
   25SOL    HW1   87   2.707   1.605   0.530  0.4283  0.7971  1.0098
   25SOL    HW2   88   2.820   1.543   0.608  0.3422 -1.6445 -0.6824
   26SOL     OW   89   3.148   0.964   1.912 -0.4040 -0.2112 -0.1192
   26SOL    HW1   90   3.170   1.024   1.840 -1.2249  0.7412  0.3916
   26SOL    HW2   91   3.063   0.928   1.887 -0.9168  0.4851  0.5783
   27SOL     OW   92   3.647   1.300   1.937  0.0192  0.6611  0.1539
   27SOL    HW1   93   3.584   1.234   1.963 -1.9568  2.1960 -0.4428
   27SOL    HW2   94   3.698   1.318   2.016  0.0184 -0.9291  0.5336
   28SOL     OW   95   1.822   0.731   1.505 -0.3930  0.2357 -0.4096
   28SOL    HW1   96   1.790   0.708   1.593  0.9032  0.6771  0.2061
   28SOL    HW2   97   1.787   0.819   1.489 -1.4883 -0.2537 -0.7916
   29SOL     OW   98   2.630   2.106   1.135  0.1026  0.2651 -0.3414
   29SOL    HW1   99   2.677   2.039   1.087 -2.8245 -1.8512 -0.5351
   29SOL    HW2  100   2.564   2.138   1.074 -1.7574 -0.3152  1.2666
   30SOL     OW  101   3.095   2.494   1.712  0.2094  0.0986  0.2763
   30SOL    HW1  102   3.112   2.482   1.618  1.6388  2.0818  0.2267
   30SOL    HW2  103   3.118   2.410   1.751 -1.0583 -0.9880 -1.1914
   31SOL     OW  104   0.488   2.409   0.420  0.6597 -0.5022  0.1577
   31SOL    HW1  105   0.461   2.332   0.370 -0.9773 -0.3094  0.6763
   31SOL    HW2  106   0.583   2.405   0.420  0.6591 -1.4113 -1.5371
   32SOL     OW  107   2.633   2.635   1.080  0.1289  0.5107  0.7044
   32SOL    HW1  108   2.659   2.724   1.054  2.2768 -0.5571 -1.1254
   32SOL    HW2  109   2.558   2.615   1.024 -0.7534  1.3393  1.5448
   33SOL     OW  110   3.372   2.560   1.176 -0.4691  0.1868  0.1322
   33SOL    HW1  111   3.436   2.497   1.144 -0.3781 -0.6079  1.7649
   33SOL    HW2  112   3.288   2.516   1.168 -0.5265  0.2681  0.2710
   34SOL     OW  113   2.112   1.411   1.131 -0.3247  0.0166  0.2324
   34SOL    HW1  114   2.172   1.352   1.178 -0.7527 -1.2847 -0.7889
   34SOL    HW2  115   2.151   1.420   1.044 -0.5761  0.7973  0.1920
   35SOL     OW  116   1.901   1.392   1.590  0.1855 -0.2141 -0.0867
   35SOL    HW1  117   1.820   1.361   1.549 -0.8812 -0.2002  1.8888
   35SOL    HW2  118   1.903   1.486   1.572  0.6927 -0.4811 -1.5894
   36SOL     OW  119   2.480   0.225   0.961 -0.3226  0.3050 -0.5143
   36SOL    HW1  120   2.497   0.318   0.949 -2.2804  0.9426  1.0232
   36SOL    HW2  121   2.475   0.213   1.056  1.8050 -1.7980 -0.5826
   37SOL     OW  122   1.076   0.281   0.887 -0.4192  0.2002 -0.4747
   37SOL    HW1  123   1.159   0.317   0.919 -1.8349  0.1348  3.8081
   37SOL    HW2  124   1.022   0.358   0.869  0.2164  0.2238 -2.5872
   38SOL     OW  125   1.539   0.470   0.448 -0.1029  0.4981  0.1034
   38SOL    HW1  126   1.552   0.393   0.504 -0.4810  0.2425 -0.1547
   38SOL    HW2  127   1.444   0.473   0.433 -0.1438  1.2564  0.4531
   39SOL     OW  128   3.416   1.699   1.134  0.0644 -0.2251  0.1355
   39SOL    HW1  129   3.400   1.776   1.189 -0.6544 -0.9248  0.9384
   39SOL    HW2  130   3.338   1.693   1.078  0.3880 -0.0414 -0.3477
   40SOL     OW  131   1.303   1.278   0.177 -0.4348  0.0775  0.1938
   40SOL    HW1  132   1.249   1.283   0.256 -0.1529  1.1836  0.3349
   40SOL    HW2  133   1.367   1.210   0.197 -1.3254 -0.7547  0.2967
   41SOL     OW  134   1.441   2.828   1.587 -0.3570  0.1538  0.6492
   41SOL    HW1  135   1.364   2.782   1.620 -0.3883 -0.1322  0.1847
   41SOL    HW2  136   1.515   2.784   1.630 -0.4156 -0.0013  0.5929
   42SOL     OW  137   1.831   0.406   1.180  0.1937 -0.3436 -0.3494
   42SOL    HW1  138   1.747   0.434   1.216  0.0802 -0.9235 -0.1625
   42SOL    HW2  139   1.845   0.465   1.105  0.0560  0.3397  0.1546
   43SOL     OW  140   0.771   0.920   0.156  0.2333  0.1192 -0.0906
   43SOL    HW1  141   0.764   1.003   0.109  1.4812 -0.6741 -1.7957
   43SOL    HW2  142   0.681   0.894   0.174 -0.1715  2.7076  2.1630
   44SOL     OW  143   1.601   2.218   1.716 -0.4832 -0.2613  0.1190
   44SOL    HW1  144   1.609   2.195   1.809  1.3258  1.5256  0.4750
   44SOL    HW2  145   1.684   2.190   1.677 -0.9857 -0.4376 -0.8567
   45SOL     OW  146   2.714   0.920   0.291 -0.1503  0.1975 -0.0204
   45SOL    HW1  147   2.628   0.880   0.282  0.2570 -0.8122  0.4058
   45SOL    HW2  148   2.735   0.913   0.384  0.1391  0.9845 -0.0149
   46SOL     OW  149   0.941   1.446   1.040  0.5266  0.2102 -0.5255
   46SOL    HW1  150   0.897   1.362   1.026 -0.2421  0.9161 -2.7514
   46SOL    HW2  151   1.033   1.424   1.051  0.3198 -0.9461 -0.9857
   47SOL     OW  152   3.364   1.156   0.798  0.0932  0.3721 -0.4216
   47SOL    HW1  153   3.272   1.150   0.771 -1.1674  0.9355  3.2092
   47SOL    HW2  154   3.395   1.066   0.798 -1.1727 -0.0870  0.3426
   48SOL     OW  155   2.620   1.231   0.831 -0.1325 -0.1927 -0.3450
   48SOL    HW1  156   2.567   1.309   0.816  1.9622  1.5844  1.0746
   48SOL    HW2  157   2.557   1.166   0.864 -2.4522 -0.1797 -4.1212
   49SOL     OW  158   1.102   0.813   0.607 -0.2239 -0.5727 -0.0492
   49SOL    HW1  159   1.039   0.830   0.536 -0.1146 -3.5730 -0.9804
   49SOL    HW2  160   1.177   0.869   0.586 -0.6461 -0.5708 -1.6997
   50SOL     OW  161   2.787   0.589   0.038  0.0555 -0.3065  0.8739
   50SOL    HW1  162   2.765   0.677   0.009  0.1893 -1.0458 -1.7742
   50SOL    HW2  163   2.709   0.537   0.018  0.8497 -1.2212  0.0534
   51SOL     OW  164   3.663   1.556   1.426  0.5433  0.1651 -0.1336
   51SOL    HW1  165   3.738   1.512   1.465 -0.0963 -0.4651  0.3830
   51SOL    HW2  166   3.669   1.646   1.459  1.4253  0.2999 -0.6068
   52SOL     OW  167   2.006   2.710   0.378  0.1162  0.6753  0.8327
   52SOL    HW1  168   1.925   2.678   0.417 -0.1557  1.0803  0.6047
   52SOL    HW2  169   1.979   2.756   0.299  0.6383  0.1574  0.3423
   53SOL     OW  170   1.552   2.458   0.287  0.8006  0.2354 -0.2525
   53SOL    HW1  171   1.561   2.372   0.328  0.1404  0.2493 -0.0654
   53SOL    HW2  172   1.458   2.472   0.281  0.8293  2.0019  1.9688
   54SOL     OW  173   2.724   2.056   1.681  0.4247  0.7353 -0.0272
   54SOL    HW1  174   2.794   2.121   1.686 -0.4743  1.7091  0.5254
   54SOL    HW2  175   2.688   2.066   1.593  1.9589 -0.8674 -0.8825
   55SOL     OW  176   3.031   1.403   0.493 -0.1647  0.0200 -0.3490
   55SOL    HW1  177   3.045   1.336   0.426  1.5872 -0.2975  0.2759
   55SOL    HW2  178   2.961   1.458   0.458  0.7726 -0.0632 -2.5211
   56SOL     OW  179   2.974   1.307   1.863  0.3345 -0.1267  0.1982
   56SOL    HW1  180   2.981   1.212   1.870 -2.0756 -0.3384  0.7757
   56SOL    HW2  181   3.030   1.331   1.789  0.6997 -2.0191 -0.1776
   57SOL     OW  182   2.416   1.334   1.219 -0.7869 -0.2400 -0.0240
   57SOL    HW1  183   2.395   1.394   1.148 -2.2664  1.4130  1.6819
   57SOL    HW2  184   2.502   1.363   1.249 -0.2821 -0.7632 -0.9449
   58SOL     OW  185   3.898   2.716   1.645  0.0992  0.3295  0.5224
   58SOL    HW1  186   3.977   2.672   1.675 -0.3487 -0.1504  1.0118
   58SOL    HW2  187   3.857   2.654   1.585 -2.1210 -1.3423  3.4739
   59SOL     OW  188   1.613   2.158   0.337  0.4507 -0.0074  0.0626
   59SOL    HW1  189   1.695   2.132   0.380  1.8261  1.4031 -1.5843
   59SOL    HW2  190   1.633   2.156   0.244 -1.9144 -1.1957 -0.5100
   60SOL     OW  191   1.311   0.253   0.132  0.6441 -0.4972 -0.2918
   60SOL    HW1  192   1.299   0.196   0.055 -2.3399  1.0302 -1.0772
   60SOL    HW2  193   1.306   0.342   0.097 -2.1443  0.2773  1.7227
   61SOL     OW  194   3.178   1.442   1.185 -0.5578 -0.3060  0.2213
   61SOL    HW1  195   3.179   1.371   1.250 -1.3250 -0.4188  0.1121
   61SOL    HW2  196   3.252   1.423   1.127 -0.5388 -0.8121  0.4116
   62SOL     OW  197   3.763   1.833   1.439  0.1172  0.3971  0.0218
   62SOL    HW1  198   3.755   1.864   1.348 -1.6422  1.5311  0.5060
   62SOL    HW2  199   3.740   1.909   1.492  1.4087 -0.1771  1.4483
   63SOL     OW  200   3.081   0.468   1.644 -0.3525  0.6381  0.1113
   63SOL    HW1  201   3.113   0.427   1.725 -1.4483  1.2465  0.8867
   63SOL    HW2  202   3.043   0.551   1.673  1.4460  2.0781 -1.3567
   64SOL     OW  203   0.934   1.033   1.174 -0.1510  0.0195 -0.4816
   64SOL    HW1  204   0.945   0.947   1.133 -1.1999 -1.0093  1.2479
   64SOL    HW2  205   1.021   1.055   1.207 -0.2237 -1.3027  0.6860
   65SOL     OW  206   1.432   0.213   0.548 -0.0238 -0.2076 -0.9449
   65SOL    HW1  207   1.440   0.133   0.497  0.3172 -0.4196 -0.5601
   65SOL    HW2  208   1.356   0.258   0.510  0.4754 -0.1501 -1.9248
   66SOL     OW  209   0.544   1.222   0.290 -0.0498 -0.3802 -0.2959
   66SOL    HW1  210   0.611   1.180   0.344 -2.1824 -4.0842 -0.1773
   66SOL    HW2  211   0.593   1.260   0.217  2.4464  0.6024  1.7184
   67SOL     OW  212   2.855   2.652   0.117  0.4141 -0.0237  0.0596
   67SOL    HW1  213   2.797   2.650   0.193  0.6891 -1.3766  0.2562
   67SOL    HW2  214   2.942   2.673   0.154  0.6300 -1.1025  0.1987
   68SOL     OW  215   1.723   2.575   0.108 -0.6231 -0.3999  0.2405
   68SOL    HW1  216   1.714   2.506   0.041 -0.7420 -1.3408  1.2008
   68SOL    HW2  217   1.690   2.535   0.188 -1.2915  1.0004  0.6954
   69SOL     OW  218   2.890   2.493   0.836  0.2808 -0.3828  0.1586
   69SOL    HW1  219   2.961   2.439   0.803  1.1486  1.3676 -1.0226
   69SOL    HW2  220   2.827   2.431   0.874  0.1661 -2.4052 -3.0197
   70SOL     OW  221   2.456   1.144   0.531  0.5182  0.0342 -0.4796
   70SOL    HW1  222   2.496   1.169   0.615  0.6219  0.8255 -0.7604
   70SOL    HW2  223   2.493   1.058   0.512  2.2037  0.7769 -0.7809
   71SOL     OW  224   2.924   1.657   0.223 -0.0420  0.2163 -0.4070
   71SOL    HW1  225   3.011   1.671   0.260 -0.4397  0.9425  0.2855
   71SOL    HW2  226   2.938   1.653   0.128  0.8131 -0.2678 -0.2721
   72SOL     OW  227   3.143   0.320   0.603  0.7790  0.4830  0.5596
   72SOL    HW1  228   3.089   0.307   0.525  2.7899  1.4382 -1.1290
   72SOL    HW2  229   3.105   0.396   0.646 -1.1970 -0.8811  1.3572
   73SOL     OW  230   2.184   1.188   0.499 -0.2286  0.4453  0.3732
   73SOL    HW1  231   2.176   1.281   0.477 -1.6313  0.2949  0.1176
   73SOL    HW2  232   2.278   1.171   0.499  0.0079  1.4771 -1.2659
   74SOL     OW  233   1.300   1.925   0.852  0.7687  0.2155  0.2963
   74SOL    HW1  234   1.318   1.866   0.925 -1.4836  0.0219  0.7635
   74SOL    HW2  235   1.328   2.011   0.882  1.7076 -0.1937  0.6062
   75SOL     OW  236   1.263   0.581   0.294  0.1193  0.0067  0.0122
   75SOL    HW1  237   1.183   0.630   0.310 -1.1038 -1.1646 -1.9948
   75SOL    HW2  238   1.287   0.602   0.203  1.6516 -0.2837  0.3122
   76SOL     OW  239   1.151   0.549   1.269  0.1109 -0.0981  0.3451
   76SOL    HW1  240   1.229   0.578   1.317  0.6697 -0.7972 -0.1024
   76SOL    HW2  241   1.156   0.453   1.272 -0.9593 -0.1474  0.6504
   77SOL     OW  242   0.317   0.652   0.337 -0.2909 -0.1781 -0.2305
   77SOL    HW1  243   0.378   0.638   0.409 -3.3198 -1.5505  2.3406
   77SOL    HW2  244   0.372   0.679   0.263  3.1865 -0.1539  2.1279
   78SOL     OW  245   3.591   0.743   1.702 -0.1933  0.6548 -0.2281
   78SOL    HW1  246   3.656   0.673   1.705  0.1096  0.8823 -1.2702
   78SOL    HW2  247   3.602   0.783   1.616  0.0181  2.3694  0.5654
   79SOL     OW  248   3.183   0.549   0.832  0.3277  0.6338 -0.1572
   79SOL    HW1  249   3.227   0.613   0.888 -2.5747  0.0384  3.1175
   79SOL    HW2  250   3.246   0.477   0.824  2.2241  2.2644 -0.8984
   80SOL     OW  251   2.679   2.235   0.847  0.7479 -0.1279 -0.4308
   80SOL    HW1  252   2.587   2.235   0.873  0.2003  1.8319 -2.0936
   80SOL    HW2  253   2.727   2.257   0.927 -0.4333  1.0932 -0.0307
   81SOL     OW  254   1.780   2.292   1.363  0.3454 -0.0422  0.6156
   81SOL    HW1  255   1.859   2.290   1.309 -1.0207 -0.7864 -1.4641
   81SOL    HW2  256   1.758   2.385   1.369  0.8906  0.1021  0.4516
   82SOL     OW  257   3.549   1.367   1.655 -0.9887 -0.3339 -0.9644
   82SOL    HW1  258   3.595   1.313   1.719 -1.1290 -0.0181 -0.5952
   82SOL    HW2  259   3.601   1.358   1.575  1.0295  1.7186 -0.0123
   83SOL     OW  260   2.397   2.441   0.708  0.0853  0.1441 -0.6098
   83SOL    HW1  261   2.433   2.495   0.778 -1.1190 -0.9209  0.9117
   83SOL    HW2  262   2.464   2.442   0.640  0.1952  3.3244 -0.5739
   84SOL     OW  263   1.397   0.440   1.006  0.1627 -0.4812  0.1555
   84SOL    HW1  264   1.454   0.377   0.962 -1.2575 -1.6653 -0.0588
   84SOL    HW2  265   1.363   0.494   0.935  0.3046 -0.3604  0.1784
   85SOL     OW  266   3.309   0.508   1.211  0.4533 -0.2374 -0.1421
   85SOL    HW1  267   3.279   0.548   1.293  1.1482  0.5121 -0.2451
   85SOL    HW2  268   3.320   0.416   1.233 -1.6198 -0.5146 -0.0253
   86SOL     OW  269   1.670   1.145   0.946 -0.3217 -0.0909  0.4456
   86SOL    HW1  270   1.754   1.185   0.967  0.2262 -0.7073 -0.4617
   86SOL    HW2  271   1.682   1.052   0.967 -1.1003 -0.0339  1.1951
   87SOL     OW  272   3.338   1.996   1.143 -0.2310 -0.3982  0.6545
   87SOL    HW1  273   3.372   2.056   1.210  0.6849  0.5691 -0.6167
   87SOL    HW2  274   3.378   2.026   1.062 -0.3701 -2.2852 -0.1610
   88SOL     OW  275   3.710   1.910   1.761  0.2300  0.1657 -0.4440
   88SOL    HW1  276   3.636   1.900   1.701 -0.8693 -0.2226  0.9038
   88SOL    HW2  277   3.677   1.968   1.829  1.1589 -0.0370  0.1923
   89SOL     OW  278   2.538   2.722   1.726  0.0356  0.2180 -0.4985
   89SOL    HW1  279   2.567   2.646   1.675  0.1820 -0.4808  0.6118
   89SOL    HW2  280   2.528   2.792   1.660  1.3049 -0.3485 -1.3383
   90SOL     OW  281   1.962   2.336   1.146  0.4757  0.5252 -0.0701
   90SOL    HW1  282   1.983   2.288   1.065  0.5703  1.6302 -0.7185
   90SOL    HW2  283   2.048   2.363   1.179  0.3260  1.9723 -0.8029
   91SOL     OW  284   1.906   1.237   1.234 -0.1175 -0.0598 -0.1793
   91SOL    HW1  285   1.979   1.175   1.246  0.2761  0.3690 -0.3420
   91SOL    HW2  286   1.940   1.304   1.175 -0.5033  0.3723  0.0778
   92SOL     OW  287   2.761   0.983   0.586  0.4127 -0.6682  0.4349
   92SOL    HW1  288   2.733   0.991   0.677 -0.4346  1.7900  0.0344
   92SOL    HW2  289   2.847   1.025   0.583  0.0148  0.1380 -0.0504
   93SOL     OW  290   4.051   0.130   1.984 -0.3795  0.0139 -0.3327
   93SOL    HW1  291   3.994   0.150   2.058  0.9053  2.5749  0.0848
   93SOL    HW2  292   3.993   0.092   1.918 -2.5164  2.1011  0.2192
   94SOL     OW  293   2.332   2.058   0.709  0.3367 -0.2097  0.1174
   94SOL    HW1  294   2.248   2.065   0.665  0.4526 -0.6853 -0.1954
   94SOL    HW2  295   2.352   1.964   0.708  0.8458 -0.1093  0.2299
   95SOL     OW  296   1.668   1.701   0.945 -0.4531 -0.4274 -0.3868
   95SOL    HW1  297   1.630   1.653   0.872 -0.0903 -0.4561 -0.5601
   95SOL    HW2  298   1.735   1.643   0.981  0.8645  0.4195 -1.3862
   96SOL     OW  299   3.491   1.716   1.635 -0.7168  0.0223  0.0203
   96SOL    HW1  300   3.455   1.739   1.721 -0.2273  0.8844  0.0110
   96SOL    HW2  301   3.482   1.621   1.629  0.0414 -0.1580  1.3884
   97SOL     OW  302   2.709   0.055   0.992 -0.3245  0.0472 -0.4602
   97SOL    HW1  303   2.735   0.093   1.076  0.7484  1.4364 -1.3827
   97SOL    HW2  304   2.642   0.115   0.959 -0.7350 -0.4881 -0.6205
   98SOL     OW  305   3.430   0.175   1.668 -0.0262  0.4835 -0.0064
   98SOL    HW1  306   3.440   0.171   1.763 -0.5518  0.5205  0.0548
   98SOL    HW2  307   3.408   0.085   1.643  1.6454  0.1199 -0.2914
   99SOL     OW  308   2.686   1.127   1.746  0.5182 -0.2131 -0.1259
   99SOL    HW1  309   2.625   1.147   1.817 -1.2358 -1.6184 -1.1309
   99SOL    HW2  310   2.639   1.063   1.693  2.8602 -1.2449 -1.0584
  100SOL     OW  311   1.814   1.169   0.528  0.1303  0.0067  0.3549
  100SOL    HW1  312   1.732   1.190   0.484 -0.1220  0.8928  1.2056
  100SOL    HW2  313   1.850   1.095   0.480 -0.5980  0.3542 -0.7401
  101SOL     OW  314   0.705   0.313   0.322 -0.6550 -0.2356 -0.4433
  101SOL    HW1  315   0.650   0.366   0.265 -2.5575  0.2336  1.6645
  101SOL    HW2  316   0.645   0.250   0.362  0.3953 -0.0383  1.5882
  102SOL     OW  317   1.014   0.750   0.870  0.2216 -0.4146  0.5972
  102SOL    HW1  318   1.090   0.715   0.916  0.8422  1.3718  1.0083
  102SOL    HW2  319   1.045   0.763   0.780  0.5165  0.5409  0.8203
  103SOL     OW  320   2.800   0.392   1.740 -0.6825 -0.1599  0.1045
  103SOL    HW1  321   2.753   0.309   1.733  0.1566 -0.5684 -0.7577
  103SOL    HW2  322   2.883   0.378   1.695  0.3466  0.5213  1.6753
  104SOL     OW  323   1.406   1.882   1.111 -0.1524  0.2337  0.3514
  104SOL    HW1  324   1.360   1.965   1.114 -1.2606 -0.3657  0.5577
  104SOL    HW2  325   1.471   1.887   1.181 -0.2627  0.8952  0.4081
  105SOL     OW  326   1.741   2.673   1.082  0.6765  0.2697 -0.2472
  105SOL    HW1  327   1.756   2.599   1.023 -0.8655 -0.4664  0.2287
  105SOL    HW2  328   1.821   2.680   1.133  1.5192  0.0606 -1.5061
  106SOL     OW  329   2.396   0.071   0.749 -0.2216 -0.0958 -0.4999
  106SOL    HW1  330   2.435   0.093   0.664  0.2870 -0.3408 -0.3325
  106SOL    HW2  331   2.440   0.128   0.812  0.5639 -1.0233 -0.1756
  107SOL     OW  332   2.958   2.173   0.359 -0.8018 -0.2019 -0.4546
  107SOL    HW1  333   2.889   2.185   0.425 -0.2172 -0.9453  0.3191
  107SOL    HW2  334   2.921   2.210   0.279 -2.6110 -1.7092 -0.3802
  108SOL     OW  335   1.931   1.666   0.309  0.0338 -0.3374  0.1650
  108SOL    HW1  336   1.840   1.669   0.279 -1.0902  0.7594  3.2909
  108SOL    HW2  337   1.939   1.582   0.353  0.7094 -0.6147 -0.4637
  109SOL     OW  338   1.914   2.275   0.142 -0.6561 -0.4263 -0.2164
  109SOL    HW1  339   1.841   2.306   0.089  1.0557  5.1218  0.0153
  109SOL    HW2  340   1.975   2.238   0.078 -1.6426 -0.5885 -1.0854
  110SOL     OW  341   1.811   0.108   0.594 -0.3388 -0.0366  0.3067
  110SOL    HW1  342   1.851   0.185   0.554  0.9907 -1.3414 -0.9901
  110SOL    HW2  343   1.848   0.105   0.682 -0.1142  0.6045  0.2380
  111SOL     OW  344   2.465   1.956   0.381 -0.4238 -0.0495 -0.1943
  111SOL    HW1  345   2.465   2.051   0.390  1.3273  0.1390 -1.7171
  111SOL    HW2  346   2.439   1.940   0.290  0.2532 -0.9745 -0.2414
  112SOL     OW  347   1.958   0.588   1.016  0.0730  0.4593 -0.1108
  112SOL    HW1  348   2.031   0.647   1.036  0.5252  0.2708 -1.1278
  112SOL    HW2  349   1.887   0.646   0.990  0.1806  0.6023 -0.0892
  113SOL     OW  350   2.306   2.560   0.409  0.0806 -0.5223 -0.1295
  113SOL    HW1  351   2.297   2.485   0.468  0.0690  0.2529  0.8956
  113SOL    HW2  352   2.280   2.635   0.463 -1.9742  0.0188 -1.7427
  114SOL     OW  353   0.966   1.845   0.503  0.0189 -0.4338 -0.5551
  114SOL    HW1  354   0.910   1.846   0.581 -1.5653 -0.2130 -1.6509
  114SOL    HW2  355   1.053   1.868   0.536 -0.6161 -0.3078  1.1385
  115SOL     OW  356   0.968   1.497   0.671 -0.1959  0.2723  0.4034
  115SOL    HW1  357   1.045   1.440   0.679 -0.8787 -0.5595  1.2033
  115SOL    HW2  358   0.970   1.551   0.750 -0.3680  0.3402  0.3608
  116SOL     OW  359   2.172   1.603   1.887 -0.5264  0.1709 -0.0844
  116SOL    HW1  360   2.116   1.653   1.828  0.0058  0.1492 -0.6211
  116SOL    HW2  361   2.202   1.667   1.951 -1.2333  0.1619  0.2598
  117SOL     OW  362   0.542   0.423   0.130 -0.2098 -0.0888  0.3391
  117SOL    HW1  363   0.511   0.514   0.132  0.0122  0.0205 -0.5992
  117SOL    HW2  364   0.576   0.412   0.041 -0.3114 -1.1202  0.4236
  118SOL     OW  365   2.462   0.481   1.546 -0.2840 -0.5763 -0.6279
  118SOL    HW1  366   2.482   0.531   1.467 -0.3753 -0.1279 -0.3704
  118SOL    HW2  367   2.394   0.420   1.520  1.8467 -2.6492 -1.7396
  119SOL     OW  368   2.326   0.802   0.870 -0.5708  0.7250 -0.1333
  119SOL    HW1  369   2.418   0.817   0.849  0.1791  2.8658  3.7172
  119SOL    HW2  370   2.278   0.856   0.807  1.3241  5.0993  1.7529
  120SOL     OW  371   1.924   2.601   1.297 -0.4396 -0.4403 -0.4904
  120SOL    HW1  372   1.992   2.559   1.349 -0.9587  2.9928  3.5543
  120SOL    HW2  373   1.955   2.691   1.286 -2.5831  0.1826 -1.9804
  121SOL     OW  374   1.526   0.273   1.609 -0.4115 -0.5151 -0.2078
  121SOL    HW1  375   1.504   0.181   1.622 -1.3505 -0.1492  0.9515
  121SOL    HW2  376   1.620   0.278   1.630 -0.0347 -1.4108 -1.5291
  122SOL     OW  377   2.317   0.171   1.892 -0.4939 -0.4620 -0.0104
  122SOL    HW1  378   2.405   0.195   1.864 -0.5777 -1.6912 -1.4978
  122SOL    HW2  379   2.295   0.234   1.960  0.3243  1.8602 -1.7636
  123SOL     OW  380   1.307   2.607   1.728  0.4682  0.5615  0.2058
  123SOL    HW1  381   1.384   2.574   1.682  0.1771  1.0439 -0.6464
  123SOL    HW2  382   1.334   2.609   1.820  0.5811 -1.7662  0.2895
  124SOL     OW  383   1.976   0.878   0.159  0.2857 -0.5406 -0.2283
  124SOL    HW1  384   1.929   0.795   0.144 -0.5375 -0.4228  1.4562
  124SOL    HW2  385   1.945   0.935   0.089 -0.9351 -0.9698 -0.0812
  125SOL     OW  386   2.375   1.034   1.141  0.6481  0.7039  0.6301
  125SOL    HW1  387   2.429   0.960   1.169  0.9985 -0.5264 -2.8087
  125SOL    HW2  388   2.415   1.110   1.183  2.5263 -0.6422  1.4176
  126SOL     OW  389   2.553   0.493   0.897  0.1039  0.0920  0.0198
  126SOL    HW1  390   2.613   0.551   0.849  0.7916 -1.5365 -1.1999
  126SOL    HW2  391   2.467   0.516   0.864  0.4185  0.1077 -0.8296
  127SOL     OW  392   2.325   1.234   0.848  0.1686 -0.2615 -0.4694
  127SOL    HW1  393   2.319   1.156   0.793  0.1740 -0.0596 -0.7627
  127SOL    HW2  394   2.354   1.303   0.788 -0.7891  0.1928 -0.4453
  128SOL     OW  395   0.738   2.148   0.464 -0.0535  0.1087  0.2069
  128SOL    HW1  396   0.809   2.107   0.414  2.5156  0.8094  2.9421
  128SOL    HW2  397   0.671   2.080   0.471  1.2867 -1.3920 -0.7301
  129SOL     OW  398   2.602   2.557   1.512 -0.0364 -1.1794  0.2000
  129SOL    HW1  399   2.659   2.577   1.438 -0.9810 -1.2489 -0.5753
  129SOL    HW2  400   2.525   2.612   1.498  0.3282 -0.1981  1.8780
  130SOL     OW  401   1.237   0.728   1.045 -0.2255 -0.1094  0.2700
  130SOL    HW1  402   1.254   0.654   1.103  1.2668 -0.9037 -1.1259
  130SOL    HW2  403   1.250   0.805   1.101 -0.6105 -0.8517  1.4300
  131SOL     OW  404   3.820   0.944   1.810 -0.2267  0.4427  0.1565
  131SOL    HW1  405   3.774   1.027   1.814 -2.1625 -0.4952 -1.0061
  131SOL    HW2  406   3.838   0.930   1.717 -0.6323 -0.7693  0.2322
  132SOL     OW  407   2.777   2.148   0.588 -0.0835 -0.3677 -0.3513
  132SOL    HW1  408   2.749   2.211   0.654  1.1366  0.4793 -0.6309
  132SOL    HW2  409   2.701   2.090   0.577 -1.3351  1.2093 -0.3112
  133SOL     OW  410   3.188   2.351   1.161  0.1330  0.2982  0.1326
  133SOL    HW1  411   3.212   2.338   1.069  0.8572 -1.3017  0.5269
  133SOL    HW2  412   3.105   2.305   1.171  0.1852  0.2480  0.3358
  134SOL     OW  413   0.742   0.233   0.665 -0.2104  0.1600  0.0862
  134SOL    HW1  414   0.697   0.190   0.593  2.0785  0.2484 -1.5088
  134SOL    HW2  415   0.785   0.162   0.712 -0.4606  0.2430  0.4397
  135SOL     OW  416   1.495   0.787   0.559  0.0344  0.3309  0.0985
  135SOL    HW1  417   1.580   0.798   0.602 -0.2066  1.9130  0.2625
  135SOL    HW2  418   1.513   0.737   0.480  1.3225  1.5764 -0.4278
  136SOL     OW  419   2.019   2.131   0.947 -0.0313 -0.4723 -0.2846
  136SOL    HW1  420   2.043   2.184   0.871 -0.8960 -0.3209 -0.4597
  136SOL    HW2  421   1.983   2.050   0.910 -0.3245 -0.4565 -0.0380
  137SOL     OW  422   0.852   2.534   0.174  0.0199 -0.2311 -0.4602
  137SOL    HW1  423   0.921   2.599   0.179 -0.3556  0.0996  1.2532
  137SOL    HW2  424   0.789   2.561   0.242 -0.9013 -1.5062 -0.7663
  138SOL     OW  425   2.943   1.325   1.552  0.0391 -0.2475 -0.0784
  138SOL    HW1  426   2.879   1.254   1.546 -1.2782  0.7614  1.2222
  138SOL    HW2  427   2.896   1.396   1.596  2.0760  0.5308  0.9847
  139SOL     OW  428   2.963   0.406   1.000 -0.3827  0.2427  0.1730
  139SOL    HW1  429   3.000   0.322   1.027 -2.6268 -1.5008 -1.8271
  139SOL    HW2  430   3.035   0.449   0.952 -0.4247 -2.6143 -2.7696
  140SOL     OW  431   2.275   0.491   0.792  0.1326 -0.3183 -0.0282
  140SOL    HW1  432   2.258   0.457   0.703 -0.3053  0.9156 -0.4331
  140SOL    HW2  433   2.268   0.586   0.783 -1.5966 -0.2408  1.6782
  141SOL     OW  434   3.437   1.698   1.913  0.2733 -0.2944  0.2161
  141SOL    HW1  435   3.355   1.747   1.918 -0.0730 -0.8472  0.0106
  141SOL    HW2  436   3.411   1.607   1.899  0.9264 -0.4332 -0.1691
  142SOL     OW  437   2.980   2.584   1.948  0.3855 -0.3373  0.1676
  142SOL    HW1  438   2.894   2.583   1.905  0.5477 -1.2386 -0.1618
  142SOL    HW2  439   3.043   2.576   1.876  0.7669  0.6107  0.3823
  143SOL     OW  440   1.159   2.389   1.026 -0.1178  0.1739 -0.1816
  143SOL    HW1  441   1.070   2.356   1.042  1.0064 -2.4563  1.3026
  143SOL    HW2  442   1.179   2.362   0.937 -0.3153 -0.5284 -0.0214
  144SOL     OW  443   2.694   0.629   1.607  0.0022  0.5159  0.4027
  144SOL    HW1  444   2.630   0.575   1.559  1.0319  0.7244 -1.2965
  144SOL    HW2  445   2.767   0.569   1.625  0.2433  0.8121  0.4093
  145SOL     OW  446   2.089   2.226   0.355  0.5053  0.5532 -0.8010
  145SOL    HW1  447   2.096   2.315   0.388 -0.2661  0.4638 -0.3739
  145SOL    HW2  448   2.016   2.228   0.294 -0.0163  0.0568 -0.2157
  146SOL     OW  449   1.589   0.882  -0.023 -0.5164  0.0308  0.4516
  146SOL    HW1  450   1.528   0.955  -0.017  0.7846  1.2296 -0.1705
  146SOL    HW2  451   1.579   0.835   0.060 -1.4194  0.8765  0.8393
  147SOL     OW  452   2.347   1.501   0.987  0.5516 -0.0607  0.1140
  147SOL    HW1  453   2.371   1.577   0.933  2.0639 -0.7969 -0.2951
  147SOL    HW2  454   2.368   1.426   0.932 -1.0444 -0.8132  0.4667
  148SOL     OW  455   0.922   2.020   0.315 -0.5355 -0.2864 -0.1367
  148SOL    HW1  456   0.922   1.954   0.384 -0.1084  0.2734  0.4117
  148SOL    HW2  457   1.013   2.023   0.284  0.4389  2.7348  2.5178
  149SOL     OW  458   3.302   2.373   0.873 -0.0338 -0.3907  0.2368
  149SOL    HW1  459   3.338   2.458   0.851 -2.2821  0.6614  0.3237
  149SOL    HW2  460   3.213   2.374   0.837 -0.8055 -1.9321  1.8930
  150SOL     OW  461   0.484   1.765   0.007 -0.2365  0.2804 -0.0885
  150SOL    HW1  462   0.473   1.856   0.036 -1.4859  0.6604 -1.5825
  150SOL    HW2  463   0.429   1.714   0.066  1.1792  0.3364  1.3391
  151SOL     OW  464   0.544   1.781   0.555 -0.0331  0.3384  0.1784
  151SOL    HW1  465   0.636   1.757   0.540 -0.5419 -1.8579  0.2422
  151SOL    HW2  466   0.524   1.744   0.641 -0.8378  1.3167  0.4270
  152SOL     OW  467   2.100   2.739   1.573 -0.1738  0.1257  0.2729
  152SOL    HW1  468   2.087   2.720   1.666 -3.3516 -0.4282 -0.1737
  152SOL    HW2  469   2.101   2.834   1.567 -1.8159  0.1886  0.7137
  153SOL     OW  470   0.709   2.044   0.112 -0.0046 -0.2265  0.1141
  153SOL    HW1  471   0.771   2.073   0.178 -0.7549  1.0849  0.2846
  153SOL    HW2  472   0.761   2.030   0.033  0.6759 -0.3476  0.5819
  154SOL     OW  473   1.153   1.509   0.070 -0.2910 -0.4039 -0.5943
  154SOL    HW1  474   1.097   1.462   0.009 -0.1674 -0.0469 -0.9822
  154SOL    HW2  475   1.214   1.443   0.103 -0.6942 -0.7091 -0.4575
  155SOL     OW  476   1.371   0.053   0.315 -0.1533  0.5416  0.3081
  155SOL    HW1  477   1.333   0.123   0.262  0.9744  0.9081 -0.0410
  155SOL    HW2  478   1.458   0.039   0.278 -0.7128 -1.7566 -0.2722
  156SOL     OW  479   2.177   0.973   0.685 -0.1966 -0.2603 -0.1038
  156SOL    HW1  480   2.095   0.925   0.696  0.2406 -1.1039 -0.3844
  156SOL    HW2  481   2.156   1.043   0.623 -0.6394 -0.6361 -0.3830
  157SOL     OW  482   2.292   0.597   1.898 -0.4796  0.7768 -0.8203
  157SOL    HW1  483   2.264   0.533   1.832  0.2699  0.8916 -1.2540
  157SOL    HW2  484   2.325   0.671   1.848  1.3341  0.3398 -0.3545
  158SOL     OW  485   1.996   0.780   1.216  0.1756  0.0502 -0.2958
  158SOL    HW1  486   1.909   0.819   1.224 -0.0310 -0.3903 -0.3383
  158SOL    HW2  487   2.030   0.778   1.306 -0.0823 -0.2733 -0.2037
  159SOL     OW  488   2.730   1.420   1.079 -0.5882  0.1568  0.3596
  159SOL    HW1  489   2.720   1.335   1.037 -2.8642  0.8136 -0.5983
  159SOL    HW2  490   2.715   1.403   1.172 -1.3602 -0.4650  0.1304
  160SOL     OW  491   1.726   1.788   1.307  0.0943 -0.0076 -0.0356
  160SOL    HW1  492   1.648   1.807   1.359  1.2117  1.3721  1.2250
  160SOL    HW2  493   1.757   1.873   1.276 -0.0842 -0.7194 -2.3693
  161SOL     OW  494   2.530   2.379   0.286 -0.1162  0.0896  0.7117
  161SOL    HW1  495   2.472   2.323   0.337  0.4411 -1.2884 -0.0994
  161SOL    HW2  496   2.478   2.405   0.210 -0.2681  0.4153  0.9241
  162SOL     OW  497   3.008   1.239   1.036  0.2767 -0.1610  0.0682
  162SOL    HW1  498   2.980   1.267   0.949 -3.4329 -0.2987  1.0149
  162SOL    HW2  499   3.063   1.310   1.068 -0.6780  1.2774 -1.3257
  163SOL     OW  500   3.107   1.951   1.245 -0.1814 -0.6011 -0.2627
  163SOL    HW1  501   3.196   1.960   1.212 -0.4265 -1.4727 -1.2220
  163SOL    HW2  502   3.109   1.869   1.294 -0.1617  0.0033  0.7731
  164SOL     OW  503   1.328   1.450   0.864 -0.2400 -0.1338  0.1322
  164SOL    HW1  504   1.326   1.517   0.796 -1.8921  0.8887  1.1192
  164SOL    HW2  505   1.344   1.499   0.945 -1.0668 -0.9625  0.8168
  165SOL     OW  506   1.792   0.560   0.511 -0.7835 -0.4249  0.5430
  165SOL    HW1  507   1.843   0.486   0.545 -0.5143 -0.1633  0.7221
  165SOL    HW2  508   1.719   0.520   0.464  0.2936 -0.8512 -0.8610
  166SOL     OW  509   1.477   0.717   1.565 -0.0633  0.3635  0.4254
  166SOL    HW1  510   1.432   0.782   1.620  0.3534  1.8895 -0.9599
  166SOL    HW2  511   1.562   0.705   1.607  0.4456  1.8899 -0.0886
  167SOL     OW  512   2.177   0.304   0.493 -0.4414 -0.2497  0.1515
  167SOL    HW1  513   2.162   0.230   0.435  0.7828 -1.1681  0.9312
  167SOL    HW2  514   2.244   0.356   0.449 -1.0200  0.1898 -0.2156
  168SOL     OW  515   1.436   2.762   1.981 -0.1356 -0.3977 -1.0952
  168SOL    HW1  516   1.372   2.833   1.979  1.0473  0.8653  1.5299
  168SOL    HW2  517   1.509   2.794   1.926  1.5153  1.7656  2.0442
  169SOL     OW  518   3.066   0.876   0.656  0.7160  0.4990  0.7874
  169SOL    HW1  519   3.094   0.964   0.634  0.9060  0.2089 -0.2021
  169SOL    HW2  520   3.083   0.867   0.750  3.1828  0.6367  0.4278
  170SOL     OW  521   0.585   0.388   0.818 -0.0225 -0.0624 -0.7169
  170SOL    HW1  522   0.629   0.352   0.741 -1.1669 -2.4686 -0.3184
  170SOL    HW2  523   0.619   0.338   0.892 -2.1471 -0.8692 -0.2142
  171SOL     OW  524   0.840   1.206   0.697 -0.0879 -0.2068 -0.1847
  171SOL    HW1  525   0.883   1.289   0.715  1.5064 -0.9268 -0.4980
  171SOL    HW2  526   0.895   1.140   0.740 -1.3232 -1.1124  0.0682
  172SOL     OW  527   2.679   1.823   0.725 -0.3074 -0.4997  0.1248
  172SOL    HW1  528   2.614   1.828   0.655  0.9780 -0.7947 -1.1100
  172SOL    HW2  529   2.740   1.755   0.697  1.6198  1.0675  0.3386
  173SOL     OW  530   3.866   0.644   1.605 -0.0418 -0.0489 -0.2419
  173SOL    HW1  531   3.915   0.726   1.592  2.0418 -0.6855  2.5574
  173SOL    HW2  532   3.927   0.576   1.579 -0.4517 -0.8102  0.7521
  174SOL     OW  533   2.162   2.570   0.967  0.4343 -0.7535 -0.0148
  174SOL    HW1  534   2.149   2.541   1.057 -1.7676 -0.5269 -0.1917
  174SOL    HW2  535   2.074   2.570   0.929  0.9546  1.5887 -1.4212
  175SOL     OW  536   3.123   1.685   1.355 -0.3423 -0.2921  0.3869
  175SOL    HW1  537   3.176   1.631   1.296 -0.6536  0.0820 -0.2548
  175SOL    HW2  538   3.037   1.643   1.355 -0.6041  0.2253 -0.1664
  176SOL     OW  539   0.613   1.376   0.616 -0.2300  0.0607  0.7178
  176SOL    HW1  540   0.632   1.300   0.671 -0.2689 -0.9550 -0.6195
  176SOL    HW2  541   0.529   1.408   0.647 -0.6302 -0.9807  0.7266
  177SOL     OW  542   2.281   0.318   1.434  0.4612  0.0879 -0.2324
  177SOL    HW1  543   2.224   0.247   1.465 -0.0784  0.8052  0.4866
  177SOL    HW2  544   2.223   0.374   1.383  0.4748  0.9064  0.6329
  178SOL     OW  545   2.071   2.430   0.506 -0.2519 -0.6895  0.0568
  178SOL    HW1  546   2.025   2.509   0.476  1.7488  0.7713  0.6082
  178SOL    HW2  547   2.046   2.422   0.598 -0.6689 -0.8844 -0.0686
  179SOL     OW  548   1.024   2.368   0.035 -0.5201 -0.5823 -0.0535
  179SOL    HW1  549   0.982   2.333  -0.043 -1.5814 -0.8300  0.6069
  179SOL    HW2  550   0.955   2.417   0.080 -0.5852 -2.2365  1.8239
  180SOL     OW  551   2.175   1.367   1.651  0.2170 -0.2020  0.2919
  180SOL    HW1  552   2.084   1.365   1.622  0.0450  1.0203  0.7038
  180SOL    HW2  553   2.179   1.439   1.713  1.9264  1.1147 -1.2406
  181SOL     OW  554   2.581   0.111   1.569 -0.1955  0.0126  0.9144
  181SOL    HW1  555   2.656   0.157   1.532 -0.2419 -0.6360 -0.0378
  181SOL    HW2  556   2.548   0.169   1.637  0.4631  0.8325  0.5549
  182SOL     OW  557   1.201   0.339   0.418  0.0444  0.5443  0.3655
  182SOL    HW1  558   1.159   0.280   0.356  1.9035 -0.5582  0.0950
  182SOL    HW2  559   1.198   0.425   0.375  0.4134 -0.0190 -0.8280
  183SOL     OW  560   2.434   1.739   0.894  0.3318 -0.1504 -0.2611
  183SOL    HW1  561   2.411   1.763   0.804  0.2891  1.4175  0.1485
  183SOL    HW2  562   2.524   1.770   0.904  0.7122 -1.2557 -0.0716
  184SOL     OW  563   2.832   0.430   1.240 -0.4484  0.4472 -0.2029
  184SOL    HW1  564   2.901   0.383   1.286 -0.2642  2.1805  1.4022
  184SOL    HW2  565   2.853   0.419   1.147  1.5272  0.2629  0.2310
  185SOL     OW  566   2.308   2.325   1.804 -0.1232  0.2785  0.6344
  185SOL    HW1  567   2.393   2.308   1.762 -0.3196 -0.7456  0.6209
  185SOL    HW2  568   2.328   2.387   1.874  0.7429 -0.3453  0.9698
  186SOL     OW  569   1.996   2.430   1.674  0.1595 -0.2528 -0.1462
  186SOL    HW1  570   2.042   2.477   1.604 -0.2369  0.3620 -0.0041
  186SOL    HW2  571   2.027   2.340   1.668  3.5682  0.6221  1.7105
  187SOL     OW  572   0.256   1.211   0.328 -0.2166 -0.4985  0.6640
  187SOL    HW1  573   0.231   1.119   0.342 -0.3096 -1.0253 -2.3958
  187SOL    HW2  574   0.351   1.208   0.316 -0.0851 -0.0195  1.5088
  188SOL     OW  575   1.174   1.310   1.085  0.0781 -0.1522  0.3805
  188SOL    HW1  576   1.204   1.370   1.153 -0.4721  0.5103  0.0442
  188SOL    HW2  577   1.253   1.289   1.035  0.6381 -1.2188  1.6381
  189SOL     OW  578   1.528   0.462   1.224  0.0206 -0.2855 -0.4614
  189SOL    HW1  579   1.460   0.435   1.162 -0.6535 -3.1033  1.3555
  189SOL    HW2  580   1.506   0.553   1.244 -2.0158 -0.4983 -1.4406
  190SOL     OW  581   3.452   2.719   1.869 -0.2270 -0.3044 -0.9404
  190SOL    HW1  582   3.430   2.740   1.960  0.3839 -2.3944 -0.2563
  190SOL    HW2  583   3.542   2.749   1.859 -0.2539 -0.1773 -0.8105
  191SOL     OW  584   3.265   1.168   1.725 -0.4188 -0.0314  0.3703
  191SOL    HW1  585   3.356   1.140   1.716  0.1173  1.0811  1.8974
  191SOL    HW2  586   3.267   1.235   1.793 -2.2604  0.6709 -0.2061
  192SOL     OW  587   1.356   0.919   0.878 -0.1073  0.7375 -0.2176
  192SOL    HW1  588   1.282   0.877   0.921 -0.1914  1.4414  0.3290
  192SOL    HW2  589   1.335   0.916   0.784 -0.3355  0.0065 -0.1475
  193SOL     OW  590   1.119   2.457   0.521  0.0049 -0.6335  0.3714
  193SOL    HW1  591   1.028   2.464   0.494 -0.1237 -0.0553  0.9281
  193SOL    HW2  592   1.150   2.547   0.524  1.2817 -0.9230 -2.0363
  194SOL     OW  593   1.488   2.451   0.616 -0.0344 -0.3321 -0.0794
  194SOL    HW1  594   1.473   2.535   0.659  2.3379  0.4667 -0.6461
  194SOL    HW2  595   1.433   2.453   0.538  0.4430  0.9696 -0.3978
  195SOL     OW  596   2.130   0.219   0.215  0.0423  0.3824 -1.0036
  195SOL    HW1  597   2.070   0.151   0.184 -0.6319 -0.4347  1.7822
  195SOL    HW2  598   2.217   0.183   0.200 -0.2920 -0.6486 -0.5824
  196SOL     OW  599   1.742   1.107   0.185 -0.5459 -0.6193 -0.9540
  196SOL    HW1  600   1.723   1.127   0.093 -0.1166 -1.0053 -1.1296
  196SOL    HW2  601   1.836   1.088   0.187  0.1664  2.4482  0.1001
  197SOL     OW  602   3.621   0.450   1.385 -0.0698  0.0807  0.0509
  197SOL    HW1  603   3.673   0.447   1.465 -0.1405 -1.1726  0.0735
  197SOL    HW2  604   3.640   0.368   1.341 -0.7876  0.3203 -0.7378
  198SOL     OW  605   1.202   2.337   0.758 -0.1959 -0.2044  0.2518
  198SOL    HW1  606   1.160   2.385   0.687 -1.0599 -0.7679  0.3628
  198SOL    HW2  607   1.261   2.275   0.715  0.0089  0.1158  0.0697
  199SOL     OW  608   1.997   0.378   0.872 -0.2955  0.3570  0.0244
  199SOL    HW1  609   2.052   0.305   0.900  0.6403 -0.0145 -2.4950
  199SOL    HW2  610   1.987   0.432   0.950 -1.7407 -2.8199  2.2696
  200SOL     OW  611   2.769   1.923   0.980 -0.2220  0.3724 -0.1227
  200SOL    HW1  612   2.782   1.834   1.012 -0.6569  0.8496  1.5234
  200SOL    HW2  613   2.749   1.914   0.887  0.1222 -1.2051 -0.0566
  201SOL     OW  614   2.871   0.413   0.690  0.1820 -0.0442 -0.5902
  201SOL    HW1  615   2.885   0.499   0.649 -0.3419  0.3352  0.0136
  201SOL    HW2  616   2.876   0.430   0.784 -1.5309 -0.3673 -0.4156
  202SOL     OW  617   2.769   2.085   1.399 -0.0327 -0.3602 -0.0426
  202SOL    HW1  618   2.719   2.118   1.324 -0.0263 -1.8449 -0.7416
  202SOL    HW2  619   2.848   2.140   1.401  0.6488 -1.1390 -2.0244
  203SOL     OW  620   0.618   0.118   0.460  0.3550 -0.1726 -0.5309
  203SOL    HW1  621   0.550   0.051   0.449  0.3974 -0.5809  1.3276
  203SOL    HW2  622   0.698   0.076   0.430  0.1518 -0.4411 -0.7093
  204SOL     OW  623   2.871   1.815   1.519  0.7251  0.0144  0.2698
  204SOL    HW1  624   2.813   1.885   1.488  0.3677 -0.6213 -0.5763
  204SOL    HW2  625   2.958   1.853   1.518  0.2351  1.3720  2.7055
  205SOL     OW  626   2.146   1.767   1.032  0.2178  0.6763  0.1571
  205SOL    HW1  627   2.234   1.769   0.995 -0.0630 -0.9746 -0.7430
  205SOL    HW2  628   2.095   1.717   0.968 -1.0668  0.5234  1.2542
  206SOL     OW  629   1.695   1.632   0.186 -0.4384  0.0033  0.1478
  206SOL    HW1  630   1.664   1.542   0.193  0.4247 -0.2990  0.1541
  206SOL    HW2  631   1.685   1.654   0.094  0.4794 -0.5258 -0.0921
  207SOL     OW  632   1.991   0.980   0.411  0.0051 -0.0592 -0.4828
  207SOL    HW1  633   1.975   0.944   0.324  1.6235 -1.7773 -0.1216
  207SOL    HW2  634   2.063   1.042   0.398  0.7960 -0.9131 -0.2684
  208SOL     OW  635   3.753   1.694   1.942  0.0491  0.8153  0.4872
  208SOL    HW1  636   3.751   1.743   1.860  0.0135  3.6588  2.0590
  208SOL    HW2  637   3.660   1.682   1.964  0.0571  0.9786  0.6113
  209SOL     OW  638   1.922   1.325   0.749  0.1887 -0.4844 -0.1384
  209SOL    HW1  639   1.881   1.254   0.699 -1.4904 -0.5026  1.1737
  209SOL    HW2  640   1.937   1.288   0.836 -1.0474  0.8167  0.6762
  210SOL     OW  641   2.977   2.232   1.299  0.1311  0.0159 -0.0829
  210SOL    HW1  642   3.027   2.152   1.316 -0.8330 -0.2941  1.4906
  210SOL    HW2  643   2.976   2.279   1.382 -1.1675  0.5979 -0.3907
  211SOL     OW  644   1.892   0.918   0.786 -0.0692 -0.0003  0.3956
  211SOL    HW1  645   1.919   0.833   0.752  0.8746  1.2579 -2.3309
  211SOL    HW2  646   1.808   0.935   0.744 -0.1582  0.4584  0.7558
  212SOL     OW  647   2.844   1.107   0.819  0.2715  0.7523 -0.1090
  212SOL    HW1  648   2.762   1.153   0.834 -2.2765 -3.0617 -0.9535
  212SOL    HW2  649   2.875   1.084   0.907 -1.6423 -0.9431  0.1766
  213SOL     OW  650   2.134  -0.023   1.272 -0.0378 -0.1645 -0.4440
  213SOL    HW1  651   2.093   0.056   1.238 -0.2840 -0.7128 -1.4477
  213SOL    HW2  652   2.222  -0.022   1.234  0.4394  0.3129  0.6290
  214SOL     OW  653   2.392   2.009   1.548  0.4748  0.5377 -0.1729
  214SOL    HW1  654   2.326   1.945   1.575  0.7708  1.0969  2.0196
  214SOL    HW2  655   2.409   1.988   1.456 -1.7326 -0.4899 -0.4056
  215SOL     OW  656   0.797   1.217   0.987  0.2623 -0.2536 -0.2623
  215SOL    HW1  657   0.767   1.199   0.898  1.6669 -2.1316 -0.4170
  215SOL    HW2  658   0.828   1.133   1.019  3.1685  1.0444  0.6853
  216SOL     OW  659   1.196   0.877   1.503 -0.3535 -0.2007  0.5988
  216SOL    HW1  660   1.155   0.856   1.419 -1.4849 -0.3471  1.1565
  216SOL    HW2  661   1.276   0.924   1.480 -0.7735 -0.0128 -0.5489
  217SOL     OW  662   3.521   0.844   1.963 -0.4184 -0.5807  0.3113
  217SOL    HW1  663   3.610   0.830   1.995 -0.0580  1.8928  0.5736
  217SOL    HW2  664   3.525   0.819   1.870  0.8938  0.5770  0.0246
  218SOL     OW  665   2.052   2.536   0.040 -0.3528 -0.7688 -0.1676
  218SOL    HW1  666   2.046   2.455  -0.010 -1.0863 -0.1537 -1.1174
  218SOL    HW2  667   1.963   2.549   0.074 -2.0311  2.5641 -4.8613
  219SOL     OW  668   0.824   1.676   0.979 -0.1657 -0.0621  0.0100
  219SOL    HW1  669   0.754   1.696   1.041  0.7164  0.2277  0.9442
  219SOL    HW2  670   0.850   1.586   1.000  0.9480  0.4401  0.9100
  220SOL     OW  671   2.317   1.647   1.492 -0.1470  0.4648 -0.2438
  220SOL    HW1  672   2.364   1.635   1.410 -1.6739 -1.4935 -0.9101
  220SOL    HW2  673   2.225   1.629   1.470 -0.3333 -2.6761  2.2982
  221SOL     OW  674   1.108   1.610   0.413  0.2500  0.0827 -0.3314
  221SOL    HW1  675   1.041   1.588   0.349 -0.6262 -1.0480  0.9375
  221SOL    HW2  676   1.085   1.699   0.441  0.3060  0.3625 -1.1269
  222SOL     OW  677   2.101   2.072   0.579  0.1027  0.2899  0.9380
  222SOL    HW1  678   2.094   2.137   0.509 -0.0265  0.1754  0.8452
  222SOL    HW2  679   2.017   2.075   0.624 -0.1164 -0.2162  0.5785
  223SOL     OW  680   3.443   0.958   1.231 -0.5845 -0.1678 -0.3805
  223SOL    HW1  681   3.453   1.035   1.287 -2.4419 -0.5591  0.5585
  223SOL    HW2  682   3.377   0.984   1.166 -0.2724 -0.5570 -0.8624
  224SOL     OW  683   3.096   1.745   0.752 -0.3885  0.3676  0.1510
  224SOL    HW1  684   3.125   1.829   0.786  0.2302  1.2492 -2.3043
  224SOL    HW2  685   3.035   1.768   0.681  0.7840 -1.1600 -1.4421
  225SOL     OW  686   2.360   0.548   0.404 -0.1499  0.1592 -0.0846
  225SOL    HW1  687   2.442   0.518   0.443 -0.5629 -0.3472  0.4235
  225SOL    HW2  688   2.326   0.612   0.466  0.5895  1.5070 -1.0330
  226SOL     OW  689   2.375   2.182   0.021 -0.3364 -0.6281  0.7065
  226SOL    HW1  690   2.380   2.255   0.082  0.0116 -0.1820  0.1537
  226SOL    HW2  691   2.403   2.219  -0.063 -1.3505 -1.0858  0.1462
  227SOL     OW  692   0.995   0.968   0.370 -0.4307  0.6546  0.1287
  227SOL    HW1  693   1.086   0.969   0.341 -0.4999  0.3697 -0.1124
  227SOL    HW2  694   0.944   0.981   0.289 -0.6327 -0.3312  0.0866
  228SOL     OW  695   3.130   0.299   1.845  0.0415 -0.8279  0.1327
  228SOL    HW1  696   3.108   0.235   1.778  0.2968 -1.1204  0.3254
  228SOL    HW2  697   3.200   0.257   1.896  0.7269 -0.0967 -0.1954
  229SOL     OW  698   1.946   0.435   0.226 -0.2937 -0.6821  0.6604
  229SOL    HW1  699   2.004   0.361   0.245  0.5292 -0.3751 -0.5496
  229SOL    HW2  700   1.897   0.408   0.149 -0.9023 -0.4532  0.9637
  230SOL     OW  701   2.532   1.314   0.277 -0.2008  0.5676 -0.4187
  230SOL    HW1  702   2.516   1.257   0.352  0.7823 -1.4119 -1.6363
  230SOL    HW2  703   2.626   1.331   0.279 -0.3103  1.2347 -0.7069
  231SOL     OW  704   2.720   2.624   0.650 -0.1604 -0.5818  0.2461
  231SOL    HW1  705   2.786   2.587   0.709  0.2650  0.0913  0.2015
  231SOL    HW2  706   2.668   2.682   0.705 -1.5123 -2.0041  0.5634
  232SOL     OW  707   0.963   2.223   1.122 -0.0331 -0.0893  0.4342
  232SOL    HW1  708   0.946   2.186   1.208  1.1337 -0.2295  0.6189
  232SOL    HW2  709   0.992   2.149   1.069  1.2539  0.3419  0.5039
  233SOL     OW  710   3.340   0.530   1.699 -0.0603 -0.3631 -0.1985
  233SOL    HW1  711   3.272   0.521   1.632 -1.7838  1.0298  1.2326
  233SOL    HW2  712   3.377   0.617   1.683 -0.8255  0.1852  0.9022
  234SOL     OW  713   1.859   2.037   1.183 -0.8346  0.3032  0.8765
  234SOL    HW1  714   1.940   2.070   1.145 -0.1078 -0.5376  1.6438
  234SOL    HW2  715   1.795   2.043   1.113  0.2161 -0.2558 -0.1593
  235SOL     OW  716   1.015   2.024   0.923  0.6089  0.0552 -0.3409
  235SOL    HW1  717   0.959   2.010   0.846  0.9959 -0.2771 -0.5647
  235SOL    HW2  718   1.093   1.972   0.905  1.4166  1.2707 -0.4787
  236SOL     OW  719   1.308   0.961   0.609 -0.1233 -0.1246  0.2555
  236SOL    HW1  720   1.374   0.895   0.588  1.4777  0.6130  2.5007
  236SOL    HW2  721   1.351   1.045   0.591 -0.9233  0.3539  0.5100
  237SOL     OW  722   3.024   1.027   1.660 -0.5878 -0.1363  0.5180
  237SOL    HW1  723   2.934   1.061   1.655  0.2525  2.1158 -0.7576
  237SOL    HW2  724   3.079   1.106   1.661  1.4431 -1.4752 -0.0589
  238SOL     OW  725   1.309   0.059   1.222 -0.0833  0.5518 -0.2588
  238SOL    HW1  726   1.237   0.121   1.235 -0.4013 -0.2545  2.4469
  238SOL    HW2  727   1.373   0.082   1.289  0.4324 -1.1401 -0.1169
  239SOL     OW  728   2.116   0.686   1.658  0.8362 -0.2160 -0.0101
  239SOL    HW1  729   2.075   0.643   1.733 -0.6907  0.7685 -0.2378
  239SOL    HW2  730   2.116   0.619   1.589 -0.8728 -0.0966 -0.1549
  240SOL     OW  731   1.534   1.617   1.600  0.2523 -0.2477 -0.0201
  240SOL    HW1  732   1.462   1.680   1.592  0.3042 -0.1743  0.0858
  240SOL    HW2  733   1.530   1.587   1.691  1.7478  1.4489  0.6560
  241SOL     OW  734   2.976   0.708   1.660  0.1781  0.5322  0.0442
  241SOL    HW1  735   2.998   0.801   1.664 -0.1825  0.6564 -0.6260
  241SOL    HW2  736   2.906   0.697   1.726  0.3101  0.7073  0.2142
  242SOL     OW  737   3.395   2.611   0.788  0.4031  0.2445 -0.4521
  242SOL    HW1  738   3.349   2.603   0.704  1.4317 -1.6888 -0.8805
  242SOL    HW2  739   3.341   2.672   0.839 -1.4831 -0.3128 -1.6764
  243SOL     OW  740   1.993   0.665   0.681 -0.9608  0.6170 -0.5791
  243SOL    HW1  741   2.000   0.589   0.739 -1.9360  1.3562  0.5289
  243SOL    HW2  742   1.928   0.638   0.615 -0.6659  0.1822 -0.6994
  244SOL     OW  743   2.759   0.154   0.276 -0.2330  0.1032  0.2019
  244SOL    HW1  744   2.812   0.206   0.215 -0.1903  0.0168  0.1638
  244SOL    HW2  745   2.820   0.088   0.309 -0.5503 -0.6159 -0.5816
  245SOL     OW  746   0.653   0.922   0.758 -0.4693 -0.0134 -0.4869
  245SOL    HW1  747   0.690   0.890   0.840 -0.8334  0.8274  0.0283
  245SOL    HW2  748   0.721   0.907   0.692 -0.3768 -1.1886 -0.1453
  246SOL     OW  749   1.935   0.356   0.599  0.0742  0.2588 -0.0278
  246SOL    HW1  750   2.017   0.318   0.567 -0.0483 -1.7157  1.7889
  246SOL    HW2  751   1.954   0.384   0.688 -0.6894  1.8320 -0.3131
  247SOL     OW  752   2.447   2.213   0.491  0.2164 -0.2954  0.4431
  247SOL    HW1  753   2.512   2.277   0.519  0.1768 -0.0454 -0.0215
  247SOL    HW2  754   2.443   2.150   0.562  0.3915  0.1187  0.8265
  248SOL     OW  755   1.811   2.470   0.936  0.4828 -0.2124 -0.8058
  248SOL    HW1  756   1.805   2.406   0.865  4.5085 -0.1934 -1.3655
  248SOL    HW2  757   1.809   2.416   1.016 -0.7695 -0.5138 -1.0064
  249SOL     OW  758   2.848   2.290   1.647  0.0024 -0.4219 -0.0149
  249SOL    HW1  759   2.940   2.298   1.622  0.2379  1.5485  1.2150
  249SOL    HW2  760   2.812   2.378   1.631 -1.3238 -0.7980  0.7464
  250SOL     OW  761   3.125   2.199   1.548  0.2661 -0.1436  0.3324
  250SOL    HW1  762   3.162   2.208   1.636  0.3397  0.7235  0.2216
  250SOL    HW2  763   3.131   2.105   1.529  1.1041 -0.2092  0.8727
  251SOL     OW  764   2.136   2.083   1.958 -0.3046  0.0623 -0.1458
  251SOL    HW1  765   2.111   2.071   1.866 -0.5435 -1.9090  0.1280
  251SOL    HW2  766   2.177   2.170   1.961  1.0354 -0.4061 -2.4114
  252SOL     OW  767   3.741   2.127   1.380 -0.0565  0.4650  0.2245
  252SOL    HW1  768   3.792   2.204   1.403 -0.9905  1.2985 -0.4199
  252SOL    HW2  769   3.663   2.132   1.435 -0.6624  0.6136 -0.6207
  253SOL     OW  770   3.021   0.402   0.344  0.5643 -0.6103  0.2096
  253SOL    HW1  771   3.049   0.487   0.312 -1.4840  0.9476  2.2633
  253SOL    HW2  772   2.927   0.398   0.326  0.2910 -1.6923  1.6170
  254SOL     OW  773   0.199   0.775   0.001  0.5275  0.2181  0.0137
  254SOL    HW1  774   0.184   0.737   0.087  0.2894  0.3130  0.0154
  254SOL    HW2  775   0.249   0.855   0.018  0.7776  0.0560  0.0346
  255SOL     OW  776   1.121   0.559   0.630 -0.6337 -0.3665 -0.5490
  255SOL    HW1  777   1.126   0.653   0.643 -0.6573 -0.5312  0.8022
  255SOL    HW2  778   1.063   0.548   0.555  1.1077  0.7447 -2.1460
  256SOL     OW  779   2.702   1.504   1.914 -0.3330 -0.1999 -0.1528
  256SOL    HW1  780   2.614   1.512   1.876 -0.4568 -1.7089 -0.2161
  256SOL    HW2  781   2.731   1.416   1.891  2.2346  1.0451 -2.3095
  257SOL     OW  782   3.422   1.213   1.323 -0.1627 -0.1490 -0.8271
  257SOL    HW1  783   3.435   1.301   1.287 -0.5021 -0.2634 -1.2371
  257SOL    HW2  784   3.332   1.214   1.355  0.0401 -0.1458 -0.2531
  258SOL     OW  785   1.740   2.011   0.128 -0.5672  0.7500 -0.4819
  258SOL    HW1  786   1.760   1.973   0.213 -1.2529 -0.0448 -0.6596
  258SOL    HW2  787   1.672   1.954   0.091 -2.0545  2.4375 -0.5229
  259SOL     OW  788   2.347   0.821   1.762  0.5739 -0.0156  0.1238
  259SOL    HW1  789   2.258   0.788   1.746 -0.0624  1.9109 -0.6194
  259SOL    HW2  790   2.337   0.917   1.763  2.5114  0.2229  0.9280
  260SOL     OW  791   0.435   1.978   0.162  0.3289 -0.3517 -0.2763
  260SOL    HW1  792   0.391   2.043   0.217 -0.9581 -0.3626 -1.2509
  260SOL    HW2  793   0.528   2.002   0.165  0.1385  0.3094  0.9829
  261SOL     OW  794   1.952   2.589   0.732 -0.5614  0.2240 -0.3879
  261SOL    HW1  795   1.899   2.636   0.667 -1.2407 -1.3635 -1.0226
  261SOL    HW2  796   1.889   2.536   0.781  0.2812 -0.7900 -0.3549
  262SOL     OW  797   2.157   0.608   0.224  0.1135 -0.4063  0.0462
  262SOL    HW1  798   2.088   0.543   0.239 -0.1906 -0.0633  0.1435
  262SOL    HW2  799   2.225   0.586   0.288  0.3717 -1.1242 -0.4583
  263SOL     OW  800   2.761   2.634   1.331 -0.2410 -0.0265  0.3267
  263SOL    HW1  801   2.717   2.620   1.247  1.9392  0.5763 -0.9826
  263SOL    HW2  802   2.782   2.727   1.332 -0.0975 -0.0568  1.4930
  264SOL     OW  803   1.551   2.025   0.707 -0.5936  0.3679  0.2319
  264SOL    HW1  804   1.481   1.970   0.743 -1.0883  0.4512 -0.5810
  264SOL    HW2  805   1.519   2.051   0.620  0.0879  1.0910  0.1895
  265SOL     OW  806   1.093   1.945   0.097 -0.1390 -0.2992 -0.3365
  265SOL    HW1  807   1.145   1.989   0.030  0.1326  1.4350  0.9369
  265SOL    HW2  808   1.003   1.971   0.079 -0.1202 -0.2044 -0.2935
  266SOL     OW  809   0.450   2.032   0.560  0.0004 -0.1962 -0.7581
  266SOL    HW1  810   0.365   2.044   0.602  0.6877 -0.6322  0.8177
  266SOL    HW2  811   0.464   1.938   0.561 -0.1403 -0.2658 -2.3969
  267SOL     OW  812   1.753   0.353   1.737 -0.2212  0.2670 -0.4375
  267SOL    HW1  813   1.817   0.368   1.667 -1.1833  0.4218 -1.3189
  267SOL    HW2  814   1.805   0.349   1.817  1.0962 -1.4326 -1.3144
  268SOL     OW  815   2.483   0.808   0.269  0.1831 -0.4916 -0.3307
  268SOL    HW1  816   2.408   0.866   0.258 -0.1915 -0.9870 -0.3996
  268SOL    HW2  817   2.446   0.726   0.300  0.5312 -1.1929 -1.6871
  269SOL     OW  818   1.220   1.883   0.584  0.0345 -0.0707  0.0038
  269SOL    HW1  819   1.267   1.947   0.530 -0.4508 -0.6897 -1.2017
  269SOL    HW2  820   1.231   1.914   0.674 -0.6015  1.9789 -0.5707
  270SOL     OW  821   3.639   0.210   1.254 -0.0110 -0.4813  0.0051
  270SOL    HW1  822   3.596   0.233   1.172  0.6357 -1.9075 -0.7766
  270SOL    HW2  823   3.623   0.116   1.264  3.2577 -1.2245 -0.6058
  271SOL     OW  824   2.296   1.307   0.164  0.0309  0.3886  0.3097
  271SOL    HW1  825   2.272   1.236   0.105  0.1425  1.5154 -1.1704
  271SOL    HW2  826   2.387   1.289   0.187  0.2932  0.4110 -0.6458
  272SOL     OW  827   0.988   1.276   0.198  0.5547  0.5060  0.1170
  272SOL    HW1  828   1.039   1.235   0.268  1.4145  1.1562 -0.1034
  272SOL    HW2  829   0.995   1.370   0.215  1.0357  0.6857 -1.0031
  273SOL     OW  830   2.902   2.770   0.480 -0.2435  0.4574 -0.3036
  273SOL    HW1  831   2.886   2.701   0.544 -6.5660  0.4589 -1.3043
  273SOL    HW2  832   2.905   2.851   0.531  2.3856  0.0335  0.4006
  274SOL     OW  833   2.219   1.008   0.232 -0.0381 -0.5846 -0.0582
  274SOL    HW1  834   2.167   0.931   0.208  0.5941  0.0251 -4.0599
  274SOL    HW2  835   2.226   1.059   0.151  0.0590  3.4804  2.2324
  275SOL     OW  836   3.142   1.915   1.550  0.0826  0.3492  0.0701
  275SOL    HW1  837   3.166   1.877   1.634 -1.6144  0.7819  0.7872
  275SOL    HW2  838   3.197   1.870   1.486  2.2612  0.8586  1.5132
  276SOL     OW  839   1.506   2.207   1.310 -0.0281 -0.6575 -0.8763
  276SOL    HW1  840   1.601   2.215   1.319 -0.2430  1.2801  0.1343
  276SOL    HW2  841   1.476   2.295   1.290 -1.5840 -1.3636 -1.8022
  277SOL     OW  842   3.158   0.163   0.820  0.2005  0.3365 -0.2524
  277SOL    HW1  843   3.146   0.217   0.742  1.7315  0.3403 -0.5252
  277SOL    HW2  844   3.237   0.197   0.861 -0.3488  0.0555  1.0863
  278SOL     OW  845   2.822   0.096   1.243 -0.4808 -0.3344  0.1271
  278SOL    HW1  846   2.818   0.140   1.328  0.6489  2.2726 -1.0696
  278SOL    HW2  847   2.910   0.115   1.210 -1.0742 -0.8151 -1.8726
  279SOL     OW  848   1.973   1.623  -0.028 -0.7476 -0.6176  0.6639
  279SOL    HW1  849   2.025   1.689   0.019 -0.4615 -0.9852  0.8717
  279SOL    HW2  850   1.963   1.552   0.035  0.4142 -1.5148 -0.1211
  280SOL     OW  851   3.395   2.483   1.675  0.1806  0.0931  0.0856
  280SOL    HW1  852   3.481   2.441   1.677  0.1092 -0.0366  0.3847
  280SOL    HW2  853   3.345   2.432   1.610  0.4842  0.4737 -0.4578
  281SOL     OW  854   1.008   0.674   0.349  0.5153 -0.1172  0.2738
  281SOL    HW1  855   0.921   0.641   0.371  0.7815 -1.2865 -0.3287
  281SOL    HW2  856   1.000   0.769   0.352  0.2162 -0.0805  4.2165
  282SOL     OW  857   2.747   1.136   1.479 -0.1894  0.6414 -0.0720
  282SOL    HW1  858   2.690   1.077   1.528 -0.8171  1.6989  0.5041
  282SOL    HW2  859   2.768   1.088   1.399 -1.1598 -0.1173  0.1152
  283SOL     OW  860   1.051   1.101   0.872  0.1166  0.4507 -0.6235
  283SOL    HW1  861   1.121   1.039   0.849 -0.6454 -0.1933 -1.2742
  283SOL    HW2  862   1.075   1.133   0.959  1.3244  0.3931 -0.9154
  284SOL     OW  863   3.082   1.168   0.704 -0.2160  0.4512 -0.1872
  284SOL    HW1  864   3.080   1.238   0.639 -0.8172  0.6211  0.0051
  284SOL    HW2  865   2.991   1.158   0.730 -0.2382 -0.8849 -0.7222
  285SOL     OW  866   1.935   2.812   0.142  0.5573  0.4003  0.1223
  285SOL    HW1  867   1.839   2.806   0.146  0.2457  3.9331  0.7660
  285SOL    HW2  868   1.955   2.813   0.048 -0.0286 -0.0100 -0.0160
  286SOL     OW  869   1.000   2.681   0.743 -0.4312  0.9131 -0.5913
  286SOL    HW1  870   1.084   2.651   0.707  0.2765  1.3975  0.5754
  286SOL    HW2  871   1.025   2.746   0.809 -1.5759 -0.5362  1.3902
  287SOL     OW  872   1.257   2.687   0.520  0.1882 -0.2747 -0.4222
  287SOL    HW1  873   1.301   2.743   0.456  0.6311  0.1486  0.2433
  287SOL    HW2  874   1.295   2.712   0.604 -3.3059  2.1369  0.6330
  288SOL     OW  875   0.254   2.787   0.235  0.1547  0.6528  0.4152
  288SOL    HW1  876   0.213   2.791   0.321  1.0100  0.2034  0.8529
  288SOL    HW2  877   0.305   2.869   0.229 -0.2468  0.8872  0.1546
  289SOL     OW  878   1.091   2.721   1.030  0.0099 -0.4360  0.3827
  289SOL    HW1  879   1.155   2.781   1.068 -0.5148 -1.3946  2.9829
  289SOL    HW2  880   1.130   2.634   1.040 -0.7574 -0.8426 -0.0372
  290SOL     OW  881   0.387   0.207   0.230 -0.7729 -0.2079 -0.1916
  290SOL    HW1  882   0.453   0.264   0.190  1.6413 -0.8684  2.5130
  290SOL    HW2  883   0.336   0.266   0.285  0.1475 -0.2516  0.7329
  291SOL     OW  884   3.595   0.375   1.714  0.8921 -0.2107 -0.3024
  291SOL    HW1  885   3.526   0.440   1.726  1.0584 -0.1811  0.5338
  291SOL    HW2  886   3.549   0.295   1.691  0.5464 -0.2777  0.5891
  292SOL     OW  887   1.394   1.598   1.081  0.4469 -0.8067  0.3403
  292SOL    HW1  888   1.420   1.686   1.055 -0.1836 -1.1787 -1.7541
  292SOL    HW2  889   1.315   1.609   1.133 -0.0304 -0.1746 -0.5130
  293SOL     OW  890   0.851   0.419   0.059  0.2939  0.4298 -0.6194
  293SOL    HW1  891   0.827   0.512   0.062  1.0688  0.6363  1.8289
  293SOL    HW2  892   0.812   0.382   0.138  1.8948 -0.7893 -0.3411
  294SOL     OW  893   3.737   2.444   1.970 -0.3134  0.4437 -0.1402
  294SOL    HW1  894   3.823   2.487   1.974 -1.5158  3.0231 -0.3148
  294SOL    HW2  895   3.722   2.430   1.877  1.3040 -3.2240 -0.0036
  295SOL     OW  896   2.287   1.100   1.766 -0.0791 -0.0925  0.3583
  295SOL    HW1  897   2.324   1.117   1.679 -0.5676  1.1060  0.3743
  295SOL    HW2  898   2.201   1.140   1.763 -0.1457 -0.1587  1.3632
  296SOL     OW  899   3.443   1.474   1.275  0.0593  0.1620  0.2193
  296SOL    HW1  900   3.523   1.488   1.326  1.3493  0.6375 -1.8506
  296SOL    HW2  901   3.428   1.558   1.231 -1.2818 -0.1007  0.1462
  297SOL     OW  902   3.014   1.936   1.837 -0.4181  0.0754 -0.3601
  297SOL    HW1  903   2.922   1.948   1.859 -0.5029 -0.2491 -0.5344
  297SOL    HW2  904   3.024   1.978   1.752 -0.1069  1.2619  0.2335
  298SOL     OW  905   1.772   0.820   0.549  0.7725 -0.6934  0.3028
  298SOL    HW1  906   1.783   0.734   0.508  0.9229 -0.5216 -0.0219
  298SOL    HW2  907   1.851   0.868   0.525  0.3309 -0.1965 -0.1860
  299SOL     OW  908   0.508   0.684   0.130 -0.1668  0.3078 -0.6301
  299SOL    HW1  909   0.589   0.684   0.080 -0.8254 -0.6710 -1.7320
  299SOL    HW2  910   0.493   0.777   0.151  1.7160  0.4187  0.4608
  300SOL     OW  911   1.892   1.049   1.505  1.0716 -0.2459 -0.3642
  300SOL    HW1  912   1.947   1.127   1.507  0.7771 -0.0492  1.3910
  300SOL    HW2  913   1.808   1.077   1.541  0.6664 -1.1555 -0.5614
  301SOL     OW  914   2.593   0.554   1.295 -0.1005  0.2920  0.3402
  301SOL    HW1  915   2.679   0.514   1.278  0.5541  1.8474 -0.2415
  301SOL    HW2  916   2.548   0.549   1.211 -0.5971 -0.5353  0.6493
  302SOL     OW  917   2.543   0.173   0.474  0.0785 -0.4762 -0.2116
  302SOL    HW1  918   2.463   0.136   0.438 -0.4610 -0.1061  0.5714
  302SOL    HW2  919   2.610   0.158   0.407 -0.6899 -0.6091 -0.9564
  303SOL     OW  920   0.488   0.947   0.229 -0.1865 -0.0253  0.3248
  303SOL    HW1  921   0.492   0.935   0.324  2.4803  1.9813  0.5902
  303SOL    HW2  922   0.471   1.040   0.217  1.3435  0.1366 -1.0896
  304SOL     OW  923   2.446   1.590   1.730 -0.1695  0.9505 -0.3616
  304SOL    HW1  924   2.396   1.611   1.651  2.2345  2.6251 -1.5735
  304SOL    HW2  925   2.380   1.577   1.798 -2.2664  1.3852 -2.1933
  305SOL     OW  926   0.966   0.751   1.240 -0.3630 -0.7603  0.1472
  305SOL    HW1  927   1.040   0.690   1.241  1.1493  0.8275 -2.2620
  305SOL    HW2  928   0.889   0.697   1.225  0.6824 -2.2210 -0.0963
  306SOL     OW  929   1.369   2.172   1.007  0.1646 -0.0881  0.0681
  306SOL    HW1  930   1.433   2.238   0.982  1.9155 -1.7419  0.0174
  306SOL    HW2  931   1.295   2.223   1.041  1.6696  1.8595  0.6018
  307SOL     OW  932   1.726   0.888   1.221  0.2928  0.5810 -0.3729
  307SOL    HW1  933   1.701   0.970   1.263 -0.0240  0.5578 -0.5152
  307SOL    HW2  934   1.675   0.886   1.141 -0.9354 -0.5271  0.4076
  308SOL     OW  935   3.813   1.251   1.714 -0.4381 -0.1976  0.3365
  308SOL    HW1  936   3.766   1.296   1.644 -1.2258 -0.2048  0.8484
  308SOL    HW2  937   3.774   1.285   1.794  1.0450  0.4559  0.8088
  309SOL     OW  938   1.178   1.264   0.417  0.1137  0.0628  0.7405
  309SOL    HW1  939   1.137   1.207   0.482 -0.6421  0.9723  1.0796
  309SOL    HW2  940   1.198   1.344   0.465 -0.7445  0.8710 -0.2283
  310SOL     OW  941   3.551   2.136   1.550 -0.4690  0.4373 -0.2240
  310SOL    HW1  942   3.508   2.108   1.631 -0.8271  1.1515 -0.1631
  310SOL    HW2  943   3.483   2.183   1.501  0.4178  2.2597  0.2073
  311SOL     OW  944   1.664   2.811   1.822 -0.4274 -0.1252  0.0292
  311SOL    HW1  945   1.687   2.788   1.732 -0.7985 -3.3767  0.6533
  311SOL    HW2  946   1.727   2.763   1.876 -1.2153  0.4895  1.5514
  312SOL     OW  947   3.029   2.091   0.725  0.2648  0.3610  0.1125
  312SOL    HW1  948   3.023   2.098   0.820  0.9087 -1.5770  0.3218
  312SOL    HW2  949   2.938   2.093   0.695 -0.0130 -0.3994  0.8867
  313SOL     OW  950   0.744   2.466   1.038  0.3590 -0.1759 -0.0832
  313SOL    HW1  951   0.757   2.483   0.944  0.3846 -0.4661 -0.1318
  313SOL    HW2  952   0.781   2.379   1.052 -2.1571 -1.3898 -0.3723
  314SOL     OW  953   2.423   2.632   0.903 -0.0197 -0.0148 -0.4308
  314SOL    HW1  954   2.344   2.580   0.920  0.8477 -1.1690  0.2174
  314SOL    HW2  955   2.390   2.716   0.871 -1.6612  0.7841  2.9092
  315SOL     OW  956   2.226   0.735   0.552 -0.6666 -0.3406 -0.0247
  315SOL    HW1  957   2.133   0.730   0.574 -0.7051 -1.5757 -0.3897
  315SOL    HW2  958   2.249   0.827   0.566 -1.7195 -0.1985  0.9272
  316SOL     OW  959   2.032   2.046   1.381 -0.0447 -0.1357  0.1916
  316SOL    HW1  960   2.000   2.021   1.468 -0.5018  1.1693  0.4174
  316SOL    HW2  961   1.960   2.026   1.322 -1.7528  3.5085  0.7973
  317SOL     OW  962   2.339   1.091   1.445  0.3003  0.0483  0.3484
  317SOL    HW1  963   2.319   1.163   1.386  1.8458  1.7110  1.7299
  317SOL    HW2  964   2.258   1.040   1.450 -0.3612  0.8035 -1.8364
  318SOL     OW  965   2.125   0.447   1.225 -0.3544  0.0760  0.5276
  318SOL    HW1  966   2.041   0.452   1.180  0.0969 -0.5873 -0.4155
  318SOL    HW2  967   2.182   0.507   1.177  0.2129 -0.8608 -0.0102
  319SOL     OW  968   1.260   1.610   1.775 -0.1575  0.2212 -0.8643
  319SOL    HW1  969   1.210   1.586   1.697 -1.2583 -0.1306 -0.0719
  319SOL    HW2  970   1.284   1.527   1.814 -0.7452  0.3895 -0.1287
  320SOL     OW  971   1.550   1.772   0.402 -0.2147 -0.4483  0.9700
  320SOL    HW1  972   1.458   1.747   0.402 -0.5652  0.6632 -0.9921
  320SOL    HW2  973   1.587   1.728   0.325  0.1047  1.6522 -0.1418
  321SOL     OW  974   3.193   1.541   1.603 -0.8257 -0.2893  0.2276
  321SOL    HW1  975   3.193   1.565   1.510  0.5845  0.6026  0.4356
  321SOL    HW2  976   3.112   1.578   1.637 -0.8616  0.2721 -0.4386
  322SOL     OW  977   3.344   2.195   1.389 -0.1562 -0.4737  0.8581
  322SOL    HW1  978   3.350   2.255   1.315 -0.5683 -0.7121  0.6290
  322SOL    HW2  979   3.260   2.217   1.431 -0.2398 -0.7927  0.8585
  323SOL     OW  980   2.141   2.449   1.423  0.5790 -0.6762  0.0864
  323SOL    HW1  981   2.196   2.379   1.390 -1.7161 -1.9232 -1.3587
  323SOL    HW2  982   2.200   2.523   1.436  2.4828 -1.8039 -1.7145
  324SOL     OW  983   2.150   2.787   1.862  0.2486  0.4529 -0.4604
  324SOL    HW1  984   2.110   2.790   1.949  1.2839 -0.3236  0.0550
  324SOL    HW2  985   2.203   2.866   1.858 -1.3795  1.5755 -1.2090
  325SOL     OW  986   3.267   0.113   1.295  0.2489 -0.3297  0.2665
  325SOL    HW1  987   3.291   0.191   1.346  1.6356 -0.7895  0.3517
  325SOL    HW2  988   3.345   0.058   1.297 -0.1304 -0.9701 -1.2252
  326SOL     OW  989   3.360   2.023   1.867  0.4421  0.9119 -0.5124
  326SOL    HW1  990   3.453   1.999   1.874  0.2929  0.5095  0.2225
  326SOL    HW2  991   3.328   2.021   1.957 -0.4544  0.3099 -0.8289
  327SOL     OW  992   0.894   0.486   0.865 -0.1550  0.3525  0.1583
  327SOL    HW1  993   0.802   0.498   0.842 -0.7361 -0.3255  1.9765
  327SOL    HW2  994   0.922   0.573   0.895 -0.3196  0.4406  0.0631
  328SOL     OW  995   1.530   1.216   0.487 -0.0988 -0.2926  0.1717
  328SOL    HW1  996   1.530   1.233   0.581  1.2094  1.5832 -0.1169
  328SOL    HW2  997   1.480   1.289   0.450 -0.3140 -0.8295 -0.6173
  329SOL     OW  998   0.764   0.566   0.440  0.6157  0.3048  0.0692
  329SOL    HW1  999   0.674   0.576   0.470  0.2477  0.9258 -1.1549
  329SOL    HW2 1000   0.771   0.474   0.414 -0.2475  0.6356 -1.4948
  330SOL     OW 1001   3.292   0.722   1.033 -0.0071 -0.0837  0.3082
  330SOL    HW1 1002   3.371   0.770   1.057  0.8672 -1.6585  0.7536
  330SOL    HW2 1003   3.281   0.657   1.103 -0.8253 -0.8750 -0.5249
  331SOL     OW 1004   1.991   1.751   1.753 -0.2206 -0.8528 -0.3717
  331SOL    HW1 1005   1.961   1.717   1.668  1.2575 -0.0240 -1.2766
  331SOL    HW2 1006   1.936   1.827   1.769  0.1809 -0.3895 -1.1326
  332SOL     OW 1007   1.721   2.320   0.718  0.1651  0.0012  0.2069
  332SOL    HW1 1008   1.742   2.227   0.713  0.1007 -0.1207  1.6899
  332SOL    HW2 1009   1.661   2.335   0.645  3.0233 -0.2550 -2.3890
  333SOL     OW 1010   0.773   0.842   1.000  0.1040  0.4715 -0.1311
  333SOL    HW1 1011   0.865   0.817   1.013 -0.4808 -1.8637 -0.0384
  333SOL    HW2 1012   0.745   0.873   1.086 -0.1709 -2.4862  0.9607
  334SOL     OW 1013   1.575   1.422   1.420  0.4878  0.0421 -0.1007
  334SOL    HW1 1014   1.499   1.415   1.362  0.4740 -1.9668  0.0988
  334SOL    HW2 1015   1.559   1.501   1.472 -0.1470  1.1319 -1.8683
  335SOL     OW 1016   2.108   1.975   0.253 -0.3885  0.5917 -0.0380
  335SOL    HW1 1017   2.118   2.063   0.289 -1.9092  0.6120  0.3985
  335SOL    HW2 1018   2.071   1.990   0.165  0.0142  0.4090 -0.2406
  336SOL     OW 1019   2.096   1.633   1.304 -0.2562  0.0361  0.3406
  336SOL    HW1 1020   2.112   1.693   1.231  0.3081 -1.6330 -0.9807
  336SOL    HW2 1021   2.105   1.545   1.266  0.9763 -0.9229  2.6008
  337SOL     OW 1022   1.886   0.754   1.907 -0.2658 -0.5873  0.2118
  337SOL    HW1 1023   1.824   0.772   1.977  0.4151  2.1143  0.2396
  337SOL    HW2 1024   1.970   0.784   1.942  0.7401 -2.4027 -0.5213
  338SOL     OW 1025   1.566   2.523   1.649 -0.1264  0.1410 -0.2763
  338SOL    HW1 1026   1.656   2.551   1.633  0.3118  0.2044  2.0543
  338SOL    HW2 1027   1.569   2.428   1.643 -0.1177  0.1869 -1.1179
  339SOL     OW 1028   1.400   0.907   1.734 -0.3898 -0.8078 -0.3997
  339SOL    HW1 1029   1.419   0.985   1.786  1.5293 -1.3139 -0.2841
  339SOL    HW2 1030   1.318   0.873   1.771  0.3598 -0.5560  1.6205
  340SOL     OW 1031   1.596   1.356   0.181 -0.2179  0.4799 -0.2129
  340SOL    HW1 1032   1.621   1.302   0.256  0.7427  0.3872 -0.5923
  340SOL    HW2 1033   1.548   1.297   0.124 -0.6423  0.4622  0.1517
  341SOL     OW 1034   1.377   2.136   0.472 -0.2449 -0.9240 -0.1964
  341SOL    HW1 1035   1.464   2.147   0.432  0.2912  0.0157  1.1682
  341SOL    HW2 1036   1.320   2.192   0.420 -0.1518 -1.8924 -1.3862
  342SOL     OW 1037   2.311   0.626   1.089  0.4874  0.3395  0.4457
  342SOL    HW1 1038   2.297   0.699   1.028 -0.2583  0.9859  1.3554
  342SOL    HW2 1039   2.331   0.551   1.033  1.2636  1.2346 -0.5161
  343SOL     OW 1040   3.074   0.838   0.928  0.5134  0.4342 -0.4615
  343SOL    HW1 1041   3.004   0.803   0.983  0.9450 -0.5855 -0.5329
  343SOL    HW2 1042   3.154   0.799   0.963  0.9172  0.7000 -1.0727
  344SOL     OW 1043   1.851   2.077   0.716 -0.1724 -0.4751  0.3017
  344SOL    HW1 1044   1.847   2.001   0.658 -0.7412  0.7992 -1.3986
  344SOL    HW2 1045   1.812   2.046   0.798  0.7301 -2.3526  0.0821
  345SOL     OW 1046   2.877   2.717   1.681  0.7869  0.2881 -0.5759
  345SOL    HW1 1047   2.909   2.627   1.675 -0.1009  0.0382 -2.2263
  345SOL    HW2 1048   2.793   2.715   1.635  0.2058  1.7241  0.3656
  346SOL     OW 1049   2.705   0.040  -0.012 -0.0444 -0.1436  0.3293
  346SOL    HW1 1050   2.663   0.092   0.057 -2.4483 -1.5755  0.0887
  346SOL    HW2 1051   2.704  -0.049   0.022  1.8162 -0.4184 -0.2274
  347SOL     OW 1052   1.863   1.564   0.706 -0.7696  0.1204 -0.1049
  347SOL    HW1 1053   1.768   1.563   0.696 -0.6435 -0.2551 -1.3400
  347SOL    HW2 1054   1.889   1.472   0.709 -0.3890  0.2160 -0.3629
  348SOL     OW 1055   2.047   1.751   0.768 -0.1550 -0.3704  0.2440
  348SOL    HW1 1056   1.976   1.689   0.753 -1.9822  1.3512  1.2421
  348SOL    HW2 1057   2.078   1.774   0.681 -0.6193 -1.3680 -0.1961
  349SOL     OW 1058   2.481   1.432   0.725 -0.1567  0.0813  0.5238
  349SOL    HW1 1059   2.559   1.473   0.687 -0.7958  0.7079 -0.1322
  349SOL    HW2 1060   2.409   1.488   0.697 -0.7847 -0.1633  1.6174
  350SOL     OW 1061   1.295   2.345   0.300 -0.0890  0.2775  0.3220
  350SOL    HW1 1062   1.204   2.371   0.315 -0.0678 -0.2463  1.4588
  350SOL    HW2 1063   1.295   2.310   0.211 -1.0364  0.1515  0.3594
  351SOL     OW 1064   1.164   0.416   1.546 -0.3263 -0.4682 -0.0062
  351SOL    HW1 1065   1.259   0.419   1.546 -0.3109  0.6147  1.9814
  351SOL    HW2 1066   1.142   0.323   1.548  0.6149 -0.7875 -2.0193
  352SOL     OW 1067   2.109   0.921   1.473  0.3217  0.1062 -0.4589
  352SOL    HW1 1068   2.113   0.852   1.538  2.5411  1.1702  0.6587
  352SOL    HW2 1069   2.026   0.966   1.490  0.8040  0.3052  1.6016
  353SOL     OW 1070   2.531   0.331   1.761 -0.2441 -0.2194  0.0684
  353SOL    HW1 1071   2.559   0.362   1.847  0.1767  1.8629 -0.7604
  353SOL    HW2 1072   2.523   0.410   1.708 -0.4514 -1.4454 -1.8434
  354SOL     OW 1073   2.379   2.537   1.950  0.2611 -0.2056  0.0250
  354SOL    HW1 1074   2.408   2.610   1.896 -0.2092  0.0529  0.1182
  354SOL    HW2 1075   2.370   2.575   2.038 -0.5003 -0.2453 -0.0346
  355SOL     OW 1076   1.545   0.666   0.182 -0.3457  0.0161 -0.2105
  355SOL    HW1 1077   1.494   0.623   0.113 -3.6395  1.6405  1.0101
  355SOL    HW2 1078   1.542   0.605   0.255 -1.2014  0.3817  0.0760
  356SOL     OW 1079   1.813   2.681   1.584  0.2117  0.4680  0.5150
  356SOL    HW1 1080   1.775   2.724   1.507  0.7904  0.6202  0.3113
  356SOL    HW2 1081   1.907   2.686   1.570  0.3062 -0.0361  0.9464
  357SOL     OW 1082   1.815   2.514   1.876  1.1923  0.3903 -0.0834
  357SOL    HW1 1083   1.870   2.480   1.806  1.4588 -1.7258  1.0611
  357SOL    HW2 1084   1.725   2.497   1.846  1.3095 -1.9787  0.6415
  358SOL     OW 1085   3.123   2.709   1.443  0.1079 -0.4848 -0.8175
  358SOL    HW1 1086   3.163   2.790   1.476  0.9722 -1.0613 -0.4265
  358SOL    HW2 1087   3.113   2.724   1.349 -1.1801  0.6683 -0.5324
  359SOL     OW 1088   2.625   1.828   1.834  0.3966  0.3492 -0.9546
  359SOL    HW1 1089   2.580   1.753   1.796  0.6912  0.6455 -1.9271
  359SOL    HW2 1090   2.639   1.888   1.760  0.8174  1.0338 -0.3395
  360SOL     OW 1091   1.840   1.540   1.088  0.2349 -0.1178 -0.0839
  360SOL    HW1 1092   1.845   1.589   1.170 -0.3540  0.2502 -0.2610
  360SOL    HW2 1093   1.925   1.497   1.080  0.6520  0.6355  0.2244
  361SOL     OW 1094   0.912   1.590   0.238 -0.0801 -0.1761  0.2879
  361SOL    HW1 1095   0.872   1.652   0.177  0.3359 -0.8988 -0.7496
  361SOL    HW2 1096   0.858   1.596   0.317 -0.5587  0.8651 -0.0912
  362SOL     OW 1097   2.218   2.821   0.463  0.2306 -0.2731  0.3673
  362SOL    HW1 1098   2.150   2.778   0.412 -1.0773  3.0097 -0.9110
  362SOL    HW2 1099   2.180   2.829   0.551 -0.0420 -0.5370  0.2752
  363SOL     OW 1100   0.079   0.286   0.063 -0.2942 -0.0912 -0.1575
  363SOL    HW1 1101   0.098   0.205   0.017 -3.1499 -0.1034 -1.4780
  363SOL    HW2 1102   0.112   0.355   0.005  0.2021 -0.2380 -0.0515
  364SOL     OW 1103   1.189   1.685   1.261  0.3817  0.4278 -0.8171
  364SOL    HW1 1104   1.099   1.707   1.237  0.5101  1.6592 -0.2370
  364SOL    HW2 1105   1.238   1.767   1.250  0.7946  0.6330  1.8512
  365SOL     OW 1106   3.633   0.909   1.426  0.4169  0.2000  0.0559
  365SOL    HW1 1107   3.573   0.904   1.352 -1.3284  0.6318  1.3718
  365SOL    HW2 1108   3.712   0.864   1.396  0.5803  2.0993 -2.7507
  366SOL     OW 1109   3.346   1.434   1.829 -0.1342 -0.0660  0.2419
  366SOL    HW1 1110   3.423   1.404   1.781 -1.5677 -2.5807 -0.6488
  366SOL    HW2 1111   3.279   1.446   1.762 -1.6221 -1.7570  1.3393
  367SOL     OW 1112   1.956   0.042   0.825 -0.1559  0.0968 -0.5111
  367SOL    HW1 1113   1.984  -0.049   0.816 -1.2175 -0.3378  0.3856
  367SOL    HW2 1114   2.031   0.086   0.866  0.0369 -0.5731 -0.1280
  368SOL     OW 1115   3.715   1.264   1.438  0.0282 -0.0617  0.3663
  368SOL    HW1 1116   3.807   1.253   1.415  0.5958  1.6644  1.6239
  368SOL    HW2 1117   3.667   1.241   1.358  1.6112  0.2235 -0.7021
  369SOL     OW 1118   1.900   1.660   1.492 -0.0989  0.4140  0.6300
  369SOL    HW1 1119   1.844   1.713   1.436 -0.0854  1.0414  1.1984
  369SOL    HW2 1120   1.967   1.625   1.433 -1.5295 -1.0236 -0.2118
  370SOL     OW 1121   1.604   0.279   0.170  0.4125  0.4198  0.2717
  370SOL    HW1 1122   1.524   0.302   0.217 -0.3604  0.6033 -1.0872
  370SOL    HW2 1123   1.600   0.184   0.160  0.9728  0.2843  1.2487
  371SOL     OW 1124   2.856   0.197   1.509  0.2619  0.2329  0.5525
  371SOL    HW1 1125   2.916   0.254   1.460 -0.1138 -0.8578 -1.2894
  371SOL    HW2 1126   2.908   0.167   1.584  1.2173  1.1591  0.2913
  372SOL     OW 1127   1.114   0.172   0.635  0.0203 -0.2142  0.1952
  372SOL    HW1 1128   1.108   0.215   0.720 -1.1701  1.5016 -0.6933
  372SOL    HW2 1129   1.121   0.244   0.572 -0.9188 -1.3468 -1.2759
  373SOL     OW 1130   2.850   0.127   0.687 -1.0357  0.4535  0.3841
  373SOL    HW1 1131   2.805   0.208   0.664 -0.4130  0.6979 -0.0228
  373SOL    HW2 1132   2.932   0.156   0.726 -0.4192  0.0337 -0.5440
  374SOL     OW 1133   3.139   1.233   1.357  0.0812  0.2757 -0.3110
  374SOL    HW1 1134   3.089   1.176   1.299  0.9201 -1.7017  0.8279
  374SOL    HW2 1135   3.079   1.254   1.428  0.3438 -0.8527  0.2728
  375SOL     OW 1136   3.330   1.334   0.984  0.4015 -0.5762 -0.2464
  375SOL    HW1 1137   3.340   1.283   0.904 -0.3416  0.2220 -0.8668
  375SOL    HW2 1138   3.418   1.341   1.019  0.9457  0.1460 -1.6847
  376SOL     OW 1139   3.868   0.162   1.537  0.8528 -0.3031 -0.3404
  376SOL    HW1 1140   3.892   0.074   1.566  1.6105  0.3849  1.2508
  376SOL    HW2 1141   3.840   0.207   1.618 -2.2853  0.0970 -1.4885
  377SOL     OW 1142   1.843   0.652   0.126  0.1405 -0.7121  0.5230
  377SOL    HW1 1143   1.891   0.585   0.174 -1.0163 -0.8293  1.5542
  377SOL    HW2 1144   1.755   0.617   0.117 -0.0786  0.0028 -0.3025
  378SOL     OW 1145   3.457   0.172   0.984 -0.0319  0.1149 -0.2984
  378SOL    HW1 1146   3.411   0.093   1.011  1.5932 -1.2546 -1.3412
  378SOL    HW2 1147   3.544   0.141   0.957  1.1102  2.4275  0.5020
  379SOL     OW 1148   3.067   0.094   1.670 -0.6729  0.0623 -0.2722
  379SOL    HW1 1149   3.155   0.067   1.643 -0.8248 -2.1582  1.2102
  379SOL    HW2 1150   3.022   0.012   1.693 -2.3644  1.3169  1.2365
  380SOL     OW 1151   2.811   1.306   0.241  0.3301  0.8725 -0.6455
  380SOL    HW1 1152   2.897   1.270   0.261 -0.1733  0.4015  0.8076
  380SOL    HW2 1153   2.822   1.348   0.156  1.4552 -0.9835 -1.4919
  381SOL     OW 1154   0.920   0.020   0.532  0.4900 -0.0714  0.4345
  381SOL    HW1 1155   0.986   0.089   0.541 -0.8164  1.0715  1.9482
  381SOL    HW2 1156   0.936  -0.038   0.606 -0.2427  0.2739  0.8759
  382SOL     OW 1157   2.406   1.563   0.115 -0.3894  0.7391  0.5351
  382SOL    HW1 1158   2.327   1.615   0.131 -1.2220  0.2937 -1.7624
  382SOL    HW2 1159   2.382   1.475   0.141 -1.0766  0.3874 -1.1921
  383SOL     OW 1160   1.529   1.277   0.759 -0.5450 -0.0529 -0.5379
  383SOL    HW1 1161   1.453   1.292   0.815 -0.7272  1.0093 -1.0463
  383SOL    HW2 1162   1.591   1.230   0.815 -1.6908 -1.2566 -0.2232
  384SOL     OW 1163   3.201   1.793   1.985  0.3270  0.6713 -0.8445
  384SOL    HW1 1164   3.143   1.734   2.032  0.0138 -0.3680 -2.4357
  384SOL    HW2 1165   3.142   1.852   1.937  0.6327  2.3868  0.7820
  385SOL     OW 1166   1.835   0.172   1.352  0.0033 -0.4827 -0.5441
  385SOL    HW1 1167   1.788   0.090   1.369  1.6681 -1.5663 -0.8620
  385SOL    HW2 1168   1.786   0.214   1.282  1.2112 -3.1507 -3.2077
  386SOL     OW 1169   3.064   0.176   1.112  0.2880 -0.0898 -0.3414
  386SOL    HW1 1170   3.139   0.161   1.170  1.2218 -1.7440 -1.9103
  386SOL    HW2 1171   3.081   0.123   1.035 -1.6476  0.8998 -1.5362
  387SOL     OW 1172   1.434   2.706   0.732 -0.2607  0.1796  0.0790
  387SOL    HW1 1173   1.370   2.749   0.788 -0.0080  2.7425 -1.4490
  387SOL    HW2 1174   1.517   2.750   0.752  0.5855 -1.4083  0.2677
  388SOL     OW 1175   3.356   2.472   1.962  0.9114 -0.2306 -0.4042
  388SOL    HW1 1176   3.295   2.440   1.895 -0.9918  1.0754  0.6166
  388SOL    HW2 1177   3.405   2.542   1.919 -0.7828  1.0797 -0.3199
  389SOL     OW 1178   2.553   0.943   1.575  0.3242 -0.2601  0.2302
  389SOL    HW1 1179   2.473   0.972   1.531  0.1358  1.4337  1.5987
  389SOL    HW2 1180   2.523   0.878   1.639  0.2565 -0.7578 -0.3007
  390SOL     OW 1181   1.009   1.825   1.085 -0.4909  0.1417  0.3484
  390SOL    HW1 1182   0.990   1.911   1.046 -1.9314  0.1995  1.1025
  390SOL    HW2 1183   0.945   1.766   1.046  2.5597 -1.4524 -2.7347
  391SOL     OW 1184   1.235   0.917   0.235 -0.1936 -0.3882 -0.0956
  391SOL    HW1 1185   1.320   0.931   0.277 -0.5299  1.1553  0.1651
  391SOL    HW2 1186   1.256   0.890   0.146  0.5816 -0.1182 -0.0048
  392SOL     OW 1187   0.753   1.752   0.067  0.0496 -0.4219  0.0394
  392SOL    HW1 1188   0.766   1.844   0.093 -0.7687 -0.1243 -0.5671
  392SOL    HW2 1189   0.660   1.746   0.046  0.1265 -1.3628 -0.0517
  393SOL     OW 1190   3.091   0.361   1.412 -0.0672 -0.2579  0.6463
  393SOL    HW1 1191   3.089   0.425   1.483 -0.5525  2.0984 -1.3491
  393SOL    HW2 1192   3.183   0.338   1.403  0.1994  0.6133  1.0369
  394SOL     OW 1193   2.947   1.609   1.740  0.0241 -0.6215 -0.0998
  394SOL    HW1 1194   2.866   1.571   1.775 -0.0671 -0.8946 -0.5875
  394SOL    HW2 1195   2.919   1.689   1.697  0.4077  0.7927  2.1486
  395SOL     OW 1196   2.077   0.383   1.756  0.2123  0.1461  0.2412
  395SOL    HW1 1197   2.063   0.400   1.849 -2.4949  0.2719 -0.1087
  395SOL    HW2 1198   2.091   0.288   1.751  1.0294  0.2300  0.8188
  396SOL     OW 1199   0.680   1.441   0.140  0.1788  0.0350  0.5537
  396SOL    HW1 1200   0.642   1.494   0.210 -2.7008  0.6626 -1.3157
  396SOL    HW2 1201   0.771   1.471   0.135  0.4191  0.2244  3.6634
  397SOL     OW 1202   1.547   1.840   0.015  0.2756 -0.1238  0.2074
  397SOL    HW1 1203   1.604   1.796  -0.048 -0.1400  0.8622 -0.9130
  397SOL    HW2 1204   1.489   1.772   0.047  1.5240 -0.9757  0.7388
  398SOL     OW 1205   2.232   2.002   1.113  0.6614 -0.2595 -0.4803
  398SOL    HW1 1206   2.202   1.916   1.083  1.9181 -1.4193  1.3990
  398SOL    HW2 1207   2.152   2.054   1.117 -0.4824 -1.9764  0.3337
  399SOL     OW 1208   2.559   1.136   0.072  0.8144  0.3673  0.4996
  399SOL    HW1 1209   2.653   1.124   0.056  1.0824  3.7848 -1.3213
  399SOL    HW2 1210   2.554   1.173   0.160  0.8420 -2.1226  1.6427
  400SOL     OW 1211   2.424   1.819   0.605  0.1006 -0.1882  0.7467
  400SOL    HW1 1212   2.357   1.755   0.583  0.4337 -0.7030  1.2152
  400SOL    HW2 1213   2.440   1.866   0.523 -0.6710 -0.2050  0.5806
  401SOL     OW 1214   3.021   2.674   1.064  0.5050  0.2602  0.0263
  401SOL    HW1 1215   3.015   2.587   1.024  1.6254 -0.5381  1.4969
  401SOL    HW2 1216   2.935   2.714   1.048 -0.7109 -1.8361  0.8685
  402SOL     OW 1217   1.182   1.564   1.503 -0.3378  0.0553  0.2972
  402SOL    HW1 1218   1.191   1.643   1.449 -0.7353  0.5999  1.0057
  402SOL    HW2 1219   1.185   1.492   1.441  1.7119  0.5207 -0.2149
  403SOL     OW 1220   2.192   0.124   0.936  0.0252 -0.6920 -0.0300
  403SOL    HW1 1221   2.261   0.118   0.869 -0.6751 -0.2854 -0.8154
  403SOL    HW2 1222   2.236   0.103   1.018  1.3149  0.5020 -0.3788
  404SOL     OW 1223   1.755   2.693   0.485  0.3957  0.1480 -0.4760
  404SOL    HW1 1224   1.673   2.700   0.437  0.0534 -0.8237 -0.0586
  404SOL    HW2 1225   1.764   2.778   0.529 -1.4623 -0.4119  1.1182
  405SOL     OW 1226   1.700   0.663   1.741  0.3994  0.3047  0.7358
  405SOL    HW1 1227   1.774   0.695   1.792  0.3518  0.4013  0.7448
  405SOL    HW2 1228   1.680   0.577   1.778  1.0020 -0.0651  0.2295
  406SOL     OW 1229   2.108   1.787   0.504  0.2845 -0.9321 -0.2988
  406SOL    HW1 1230   2.038   1.749   0.452 -0.7441 -1.5493  1.4635
  406SOL    HW2 1231   2.125   1.872   0.463 -0.8628 -1.1700 -1.3088
  407SOL     OW 1232   0.811   1.865   0.789 -0.2161  0.2482  0.4493
  407SOL    HW1 1233   0.716   1.857   0.793 -0.2283  0.8910  2.0014
  407SOL    HW2 1234   0.844   1.792   0.841  0.2071 -0.5120 -0.8138
  408SOL     OW 1235   1.592   1.411   1.112  0.3304 -0.1636  0.1084
  408SOL    HW1 1236   1.524   1.478   1.111 -0.9829 -1.3720 -2.6985
  408SOL    HW2 1237   1.674   1.460   1.106 -0.5571  1.2295 -1.3367
  409SOL     OW 1238   2.420   2.168   0.974 -0.2167 -0.7619 -0.2573
  409SOL    HW1 1239   2.413   2.158   0.880 -1.6968  1.0360 -0.3827
  409SOL    HW2 1240   2.353   2.110   1.010 -1.2443  0.2953 -0.4390
  410SOL     OW 1241   0.336   1.716   0.372  0.1072  0.0297  0.2769
  410SOL    HW1 1242   0.364   1.794   0.324  2.7853 -1.3448 -0.6046
  410SOL    HW2 1243   0.397   1.710   0.445 -0.8929 -0.5380  1.0835
  411SOL     OW 1244   3.641   2.063   1.958  0.1162  0.3086  0.4213
  411SOL    HW1 1245   3.679   2.151   1.956 -2.5617  1.5422 -0.2373
  411SOL    HW2 1246   3.608   2.053   2.048 -0.1085  0.2360  0.3319
  412SOL     OW 1247   1.510   1.873   1.846 -0.1958 -0.0557  0.0744
  412SOL    HW1 1248   1.436   1.856   1.788 -0.5287 -1.3226  0.8402
  412SOL    HW2 1249   1.475   1.929   1.915 -1.5159 -3.4872  2.4571
  413SOL     OW 1250   2.442   1.949   1.282 -0.2743  0.1662  0.6100
  413SOL    HW1 1251   2.524   1.990   1.253 -0.4641 -1.1510 -2.1077
  413SOL    HW2 1252   2.381   1.966   1.211 -1.5440 -1.2478  1.3123
  414SOL     OW 1253   2.136   2.311   0.785 -0.3715  0.4553  0.0024
  414SOL    HW1 1254   2.175   2.389   0.825  1.6534 -1.3338  1.7482
  414SOL    HW2 1255   2.194   2.291   0.712  0.2488 -0.4617  0.7266
  415SOL     OW 1256   2.042   0.194   1.529 -0.0856  0.0179  0.2886
  415SOL    HW1 1257   1.970   0.190   1.466  1.4918 -1.4001 -1.5478
  415SOL    HW2 1258   2.045   0.285   1.557 -1.6434  0.4167 -0.7338
  416SOL     OW 1259   2.683   2.316   1.929 -0.0801  0.2884  0.0695
  416SOL    HW1 1260   2.633   2.288   1.852  2.0879 -0.2727 -1.2317
  416SOL    HW2 1261   2.688   2.411   1.921  1.0753  0.1477 -1.1435
  417SOL     OW 1262   0.502   0.557   0.528  0.0697 -0.4029  0.6649
  417SOL    HW1 1263   0.476   0.586   0.615  1.5996 -0.2612  1.1065
  417SOL    HW2 1264   0.468   0.468   0.520 -0.3855 -0.2847  1.2600
  418SOL     OW 1265   0.876   0.096   0.920 -0.1806 -0.0367  0.3068
  418SOL    HW1 1266   0.943   0.155   0.886  0.7397 -2.0657 -1.6346
  418SOL    HW2 1267   0.925   0.030   0.969 -0.6351 -1.7219 -1.3909
  419SOL     OW 1268   1.686   1.962   0.972 -0.2388  0.4352 -0.1824
  419SOL    HW1 1269   1.615   1.990   0.914 -0.5753  0.4849  0.2495
  419SOL    HW2 1270   1.691   1.867   0.960  0.2095  0.5410 -0.8685
  420SOL     OW 1271   3.773   2.524   1.491  0.0948  0.6095 -0.1051
  420SOL    HW1 1272   3.746   2.586   1.423  0.3860  0.9770  0.1094
  420SOL    HW2 1273   3.839   2.469   1.449 -0.9129 -0.2362 -0.6040
  421SOL     OW 1274   2.856   1.594   1.346  0.0401 -0.5948 -0.0879
  421SOL    HW1 1275   2.796   1.522   1.365 -1.3211 -0.1077 -2.1760
  421SOL    HW2 1276   2.848   1.652   1.422  0.2874 -2.0401  1.1000
  422SOL     OW 1277   2.695   2.585   1.918 -0.0341 -0.2213  0.1351
  422SOL    HW1 1278   2.656   2.642   1.852  2.2927  1.7394  0.2731
  422SOL    HW2 1279   2.685   2.633   2.000  0.3048 -0.9055  0.5877
  423SOL     OW 1280   2.916   0.726   1.163  0.4197  0.4698  0.3996
  423SOL    HW1 1281   2.876   0.649   1.203  0.1408 -0.0446 -0.8320
  423SOL    HW2 1282   2.971   0.763   1.232 -0.9494  0.2986  1.6340
  424SOL     OW 1283   3.371   0.318   1.456 -0.0663  0.1489 -0.2497
  424SOL    HW1 1284   3.380   0.269   1.538  0.9837 -1.4127 -1.2375
  424SOL    HW2 1285   3.444   0.380   1.458  1.8306 -1.8985 -1.2430
  425SOL     OW 1286   3.518   2.793   1.267  0.2980  0.2890  0.3445
  425SOL    HW1 1287   3.500   2.721   1.207  0.8933 -0.3538  0.9270
  425SOL    HW2 1288   3.490   2.761   1.353  1.5108  0.3540  0.7739
  426SOL     OW 1289   1.589   0.871   0.958 -0.9218  0.4337  0.0007
  426SOL    HW1 1290   1.497   0.880   0.932 -0.4273  0.3688 -1.8958
  426SOL    HW2 1291   1.611   0.781   0.936 -0.5978  0.2162  1.1767
  427SOL     OW 1292   2.370   2.751   0.159 -0.6602  0.5984 -0.4129
  427SOL    HW1 1293   2.329   2.749   0.246 -0.5791 -1.1359 -0.3810
  427SOL    HW2 1294   2.436   2.820   0.166 -0.0194 -0.1119  1.2201
  428SOL     OW 1295   1.381   0.493   1.723  0.2997  0.5032  0.0999
  428SOL    HW1 1296   1.449   0.431   1.696 -0.0833 -0.6604  1.7008
  428SOL    HW2 1297   1.391   0.567   1.663  0.4358 -1.2987 -2.2504
  429SOL     OW 1298   2.481   0.182   0.172  0.1608 -0.0264  0.1652
  429SOL    HW1 1299   2.568   0.214   0.197  0.9012 -0.7683 -1.3545
  429SOL    HW2 1300   2.448   0.248   0.111  0.4430 -0.6575 -0.6810
  430SOL     OW 1301   2.600   0.449   0.477 -0.2559  0.2223 -0.4351
  430SOL    HW1 1302   2.660   0.442   0.402  1.0696 -1.6896  0.7147
  430SOL    HW2 1303   2.594   0.360   0.512 -0.9999  1.0129  1.6158
  431SOL     OW 1304   3.099   2.366   0.678  0.4821 -0.0189  1.2236
  431SOL    HW1 1305   3.070   2.275   0.685  1.5487 -0.3342  1.8998
  431SOL    HW2 1306   3.165   2.365   0.609  0.5069  0.2361  1.2423
  432SOL     OW 1307   3.557   0.620   1.198  0.9079  0.0471 -0.1589
  432SOL    HW1 1308   3.569   0.561   1.272 -0.2380  0.8249  0.6916
  432SOL    HW2 1309   3.472   0.596   1.162  0.6780  0.8049 -0.1384
  433SOL     OW 1310   2.255   2.362   1.143 -0.3052 -0.2195  0.0690
  433SOL    HW1 1311   2.316   2.325   1.078  0.5668  0.0550  0.7201
  433SOL    HW2 1312   2.294   2.340   1.227 -1.3492 -0.4260  0.5063
  434SOL     OW 1313   4.013   1.804   1.950  0.2171 -0.0775 -0.2885
  434SOL    HW1 1314   3.921   1.780   1.945  0.6469 -1.8527 -0.1607
  434SOL    HW2 1315   4.057   1.749   1.885  0.9846  2.0619 -1.7138
  435SOL     OW 1316   3.661   2.400   1.694 -0.0485 -0.5428 -0.0252
  435SOL    HW1 1317   3.697   2.454   1.625  2.1335 -0.6220  0.9648
  435SOL    HW2 1318   3.683   2.310   1.669 -0.2286 -0.6628  0.2307
  436SOL     OW 1319   0.738   1.085   0.452 -0.7564 -0.6490  0.1572
  436SOL    HW1 1320   0.821   1.042   0.435  0.8550  3.1344 -3.2304
  436SOL    HW2 1321   0.747   1.119   0.542  1.5149 -0.1270 -0.2157
  437SOL     OW 1322   1.361   1.497   0.396  0.5847  0.9369  0.3348
  437SOL    HW1 1323   1.277   1.542   0.390  0.2243  0.3978  1.2292
  437SOL    HW2 1324   1.374   1.460   0.308  0.6990  2.4103 -0.2986
  438SOL     OW 1325   2.243   1.556   0.714 -0.2419 -0.2563  0.2769
  438SOL    HW1 1326   2.171   1.619   0.716  1.1819  1.4410  0.6148
  438SOL    HW2 1327   2.263   1.545   0.621 -0.0946  0.2882  0.2430
  439SOL     OW 1328   1.647   0.018   0.851  0.6395 -0.0907 -0.0148
  439SOL    HW1 1329   1.735   0.043   0.824  0.5058 -0.8152 -1.1679
  439SOL    HW2 1330   1.661  -0.046   0.921  1.2095 -3.4745 -2.9712
  440SOL     OW 1331   2.774   2.270   0.163  0.0910  0.2807  0.4070
  440SOL    HW1 1332   2.737   2.283   0.075  1.0993  2.2432  0.2056
  440SOL    HW2 1333   2.720   2.324   0.220 -0.7501 -1.2308  1.0968
  441SOL     OW 1334   2.935   1.787   0.526  0.1534  0.8581 -0.2121
  441SOL    HW1 1335   3.001   1.767   0.459  0.6581 -0.3509  0.6153
  441SOL    HW2 1336   2.864   1.829   0.478  0.7437  0.5215 -1.4178
  442SOL     OW 1337   1.349   1.707   0.161  0.1907 -0.0260 -0.1663
  442SOL    HW1 1338   1.311   1.794   0.173  1.7014  0.8122 -1.2541
  442SOL    HW2 1339   1.274   1.652   0.138 -0.5905  1.2787 -0.8467
  443SOL     OW 1340   4.124   2.264   1.950  0.3477 -0.0307  0.6197
  443SOL    HW1 1341   4.161   2.345   1.984 -0.5060 -0.0785  1.7072
  443SOL    HW2 1342   4.045   2.249   2.003  0.0584 -1.1458 -0.0918
  444SOL     OW 1343   0.507   0.936   0.503 -0.0667 -0.3465 -0.2960
  444SOL    HW1 1344   0.489   0.911   0.593  0.4989 -1.0784 -0.3834
  444SOL    HW2 1345   0.599   0.962   0.503 -0.0515 -0.3998 -0.6721
  445SOL     OW 1346   3.701   0.003   1.841  0.6248  0.4047  0.0674
  445SOL    HW1 1347   3.772  -0.032   1.786  0.6154  1.3449 -0.5611
  445SOL    HW2 1348   3.725   0.094   1.857 -0.3448  0.6838  0.0132
  446SOL     OW 1349   0.927   2.625   1.210  0.0993  0.4146  0.0773
  446SOL    HW1 1350   0.857   2.575   1.167  1.0097 -0.5335 -0.3487
  446SOL    HW2 1351   0.975   2.666   1.138 -1.4284  3.1192  0.4498
  447SOL     OW 1352   1.321   0.055   0.956 -0.5041  0.1920 -0.2892
  447SOL    HW1 1353   1.340   0.145   0.927  0.5225  0.1452  0.1731
  447SOL    HW2 1354   1.336   0.057   1.050 -2.1679 -0.0608  0.0070
  448SOL     OW 1355   0.812   2.502   0.776  0.4413 -0.3104 -0.0219
  448SOL    HW1 1356   0.877   2.569   0.756  2.4055 -2.6102 -2.1702
  448SOL    HW2 1357   0.728   2.548   0.776  1.8753  2.5120  1.2863
  449SOL     OW 1358   3.258   1.056   1.050  0.9092  0.3030  0.3280
  449SOL    HW1 1359   3.240   1.147   1.025  1.1339  0.9617  2.3850
  449SOL    HW2 1360   3.185   1.007   1.013  1.7732  0.9459 -2.5343
  450SOL     OW 1361   2.059   2.532   2.002  0.0887 -0.3628 -0.1112
  450SOL    HW1 1362   2.118   2.577   1.941  0.4950 -0.2038  0.3893
  450SOL    HW2 1363   1.973   2.541   1.963 -0.0037  1.7800  0.4588
  451SOL     OW 1364   2.355   2.653   1.461 -0.0277  0.8236  0.2150
  451SOL    HW1 1365   2.295   2.712   1.506 -0.1513  0.4339  0.5660
  451SOL    HW2 1366   2.355   2.683   1.370 -1.0179  0.6127  0.1428
  452SOL     OW 1367   2.396   1.912   0.082  0.3201 -0.4779 -0.2010
  452SOL    HW1 1368   2.368   2.003   0.075 -1.9949 -1.2475 -2.8066
  452SOL    HW2 1369   2.450   1.898   0.004 -0.5789 -1.6870 -0.6340
  453SOL     OW 1370   2.104   2.175   1.699 -0.4694 -0.3744 -0.0262
  453SOL    HW1 1371   2.171   2.234   1.734 -1.3710  0.9667 -0.4715
  453SOL    HW2 1372   2.139   2.145   1.615 -0.6608  0.7798 -0.5315
  454SOL     OW 1373   1.573   1.546   0.675  0.3355  0.3770  0.4602
  454SOL    HW1 1374   1.493   1.585   0.640  0.5012  1.7908  1.5245
  454SOL    HW2 1375   1.548   1.457   0.700 -0.3591  0.1204 -1.0652
  455SOL     OW 1376   0.392   2.173   0.344 -1.0395  0.3478 -0.0502
  455SOL    HW1 1377   0.302   2.191   0.373  0.1872  4.9237  1.8227
  455SOL    HW2 1378   0.431   2.124   0.416 -1.8937 -1.5633 -0.8236
  456SOL     OW 1379   2.689   0.600   1.893 -0.2577  0.0246  0.4491
  456SOL    HW1 1380   2.692   0.629   1.802 -1.7639  0.9691  0.6604
  456SOL    HW2 1381   2.726   0.511   1.891  0.8864  0.4969 -0.8488
  457SOL     OW 1382   1.467   0.241   1.362  0.3723  0.3550  0.2099
  457SOL    HW1 1383   1.485   0.267   1.453  0.6981  0.5500  0.0894
  457SOL    HW2 1384   1.488   0.318   1.310  1.2057 -0.0911 -0.1362
  458SOL     OW 1385   3.400   1.876   1.436  0.7256 -0.0061 -0.4128
  458SOL    HW1 1386   3.432   1.825   1.510  0.7801  0.2894 -0.2293
  458SOL    HW2 1387   3.455   1.955   1.436 -0.4619  0.8642  0.3651
  459SOL     OW 1388   1.749   2.071   1.517  0.3073 -0.7336  0.3889
  459SOL    HW1 1389   1.719   1.993   1.470  0.3017 -1.4641  1.5533
  459SOL    HW2 1390   1.758   2.138   1.450  2.1988 -2.2499 -0.9668
  460SOL     OW 1391   1.436   1.053   1.460 -0.2083  0.3327  0.1513
  460SOL    HW1 1392   1.471   1.021   1.544 -0.8718  1.9478  1.0937
  460SOL    HW2 1393   1.514   1.083   1.412  0.0656  0.5697  0.7305
  461SOL     OW 1394   1.967   1.431   0.451  0.2165 -0.0116  0.2834
  461SOL    HW1 1395   2.006   1.469   0.529 -1.1155  0.7045  0.6404
  461SOL    HW2 1396   1.944   1.341   0.476  0.3409  0.0246  0.5215
  462SOL     OW 1397   3.253   0.878   1.562 -0.2075  0.0508 -0.5022
  462SOL    HW1 1398   3.324   0.941   1.574  0.8167 -1.1412 -0.2344
  462SOL    HW2 1399   3.185   0.906   1.624 -0.4622  1.8408 -1.5146
  463SOL     OW 1400   2.846   0.904   1.876 -0.2871  0.2320 -0.0288
  463SOL    HW1 1401   2.784   0.862   1.936 -0.1509  0.2534  0.1273
  463SOL    HW2 1402   2.826   0.997   1.881  0.9878  0.4769  1.4711
  464SOL     OW 1403   3.007   2.059   1.031 -0.1614  0.4329 -0.2960
  464SOL    HW1 1404   2.922   2.016   1.020 -0.6316  1.2130  0.1821
  464SOL    HW2 1405   3.044   2.017   1.109  0.3178 -0.5599 -1.0371
  465SOL     OW 1406   3.832   0.239   1.809 -0.0955 -0.1717  0.1122
  465SOL    HW1 1407   3.865   0.259   1.897  1.1727  0.2217 -0.4316
  465SOL    HW2 1408   3.785   0.318   1.783  1.5921  0.6809 -0.4893
  466SOL     OW 1409   3.936   0.506   1.844 -0.2001  0.8511 -0.0705
  466SOL    HW1 1410   3.897   0.562   1.778  1.4976  1.0814 -0.9395
  466SOL    HW2 1411   4.011   0.465   1.800  1.7466  1.9557  2.0156
  467SOL     OW 1412   3.057   0.948   0.368 -0.3904  0.2511 -0.1357
  467SOL    HW1 1413   3.042   0.861   0.332  0.4532  0.4347 -0.9650
  467SOL    HW2 1414   3.114   0.933   0.444  1.6357  0.2338 -1.5776
  468SOL     OW 1415   1.166   2.344   1.540  0.3225 -0.3552 -0.0800
  468SOL    HW1 1416   1.218   2.286   1.594 -0.0413  0.4109  1.1464
  468SOL    HW2 1417   1.228   2.408   1.506  0.6271 -1.0985 -0.9714
  469SOL     OW 1418   2.350   1.608   0.416 -0.0621 -0.5886  0.4407
  469SOL    HW1 1419   2.440   1.577   0.401 -0.6227 -1.4773 -1.5445
  469SOL    HW2 1420   2.329   1.658   0.337 -1.0891  0.1668  1.1763
  470SOL     OW 1421   3.388   1.714   0.828 -0.0213 -0.6506 -0.2662
  470SOL    HW1 1422   3.435   1.666   0.896 -0.2287  1.8372  1.8038
  470SOL    HW2 1423   3.297   1.687   0.839  0.1317 -1.3294 -0.5757
  471SOL     OW 1424   2.569   0.885   0.781  0.0906  0.0462 -0.5246
  471SOL    HW1 1425   2.613   0.875   0.866 -0.8739  0.5578  0.0514
  471SOL    HW2 1426   2.603   0.813   0.728 -0.2736 -1.0920  0.7292
  472SOL     OW 1427   2.572   0.848   1.284  0.0552  0.2068 -0.1812
  472SOL    HW1 1428   2.592   0.758   1.312  0.1574  0.4662  0.6051
  472SOL    HW2 1429   2.554   0.895   1.366 -0.6848  0.7369 -0.6338
  473SOL     OW 1430   2.919   0.650   0.578  0.4627  0.4045  0.1298
  473SOL    HW1 1431   2.954   0.729   0.619 -1.4534  1.0765  0.6272
  473SOL    HW2 1432   2.946   0.655   0.487  1.6613  0.8276  0.4993
  474SOL     OW 1433   1.363   0.580   0.756  0.3024  0.0526 -0.0883
  474SOL    HW1 1434   1.416   0.625   0.690  0.4306 -1.3381 -0.9743
  474SOL    HW2 1435   1.284   0.554   0.709  0.0985 -0.3751  0.4868
  475SOL     OW 1436   3.091   2.741   0.745 -0.1833 -0.3906 -0.0178
  475SOL    HW1 1437   3.131   2.826   0.762 -1.6509  0.2069  0.7007
  475SOL    HW2 1438   3.004   2.748   0.785  0.9098 -3.4806  3.3558
  476SOL     OW 1439   2.818   1.682   1.094  0.1169  0.1869  0.0136
  476SOL    HW1 1440   2.841   1.675   1.187 -1.8345 -1.0106  0.4560
  476SOL    HW2 1441   2.810   1.591   1.065 -0.2443  0.5539 -1.0836
  477SOL     OW 1442   2.847   2.352   1.071  0.2605 -0.0274 -0.0138
  477SOL    HW1 1443   2.897   2.277   1.102 -0.5458 -0.7334 -0.3721
  477SOL    HW2 1444   2.784   2.370   1.141 -0.2886 -0.4013 -0.4073
  478SOL     OW 1445   2.531   1.238   1.951 -0.2181 -0.2767 -0.2087
  478SOL    HW1 1446   2.490   1.314   1.993 -0.5369 -0.1162 -0.8064
  478SOL    HW2 1447   2.471   1.166   1.966  0.9036 -0.8503  1.9041
  479SOL     OW 1448   1.484   0.756   1.297 -0.0506  0.1698  0.1606
  479SOL    HW1 1449   1.569   0.796   1.280 -0.7008  1.5702  0.1382
  479SOL    HW2 1450   1.489   0.729   1.389  0.4376  0.1856  0.1430
  480SOL     OW 1451   2.669   2.633   0.350  0.1149  0.3598  0.4225
  480SOL    HW1 1452   2.644   2.666   0.437 -2.8139  0.7441 -0.4571
  480SOL    HW2 1453   2.592   2.584   0.320  0.6947  0.9826 -2.3114
  481SOL     OW 1454   2.712   1.647   0.374  0.1520  0.0058  0.1978
  481SOL    HW1 1455   2.793   1.646   0.323  1.5685  0.3233  2.3126
  481SOL    HW2 1456   2.684   1.738   0.374  0.0409 -0.0295 -0.1871
  482SOL     OW 1457   2.755   0.459   0.257  0.5888  0.5302 -0.8819
  482SOL    HW1 1458   2.790   0.401   0.188 -0.3714  0.4962 -1.3623
  482SOL    HW2 1459   2.771   0.547   0.224  0.4544  0.5157 -0.9903
  483SOL     OW 1460   4.073   1.024   1.971  0.0114 -0.8320  0.2955
  483SOL    HW1 1461   4.129   1.089   2.013  0.0253 -1.4842  1.3228
  483SOL    HW2 1462   3.995   1.073   1.944 -0.5606 -0.5938  2.2056
  484SOL     OW 1463   1.653   1.137   1.312  0.2226  0.0136 -0.7672
  484SOL    HW1 1464   1.604   1.191   1.251  1.6652 -1.7502 -3.7393
  484SOL    HW2 1465   1.741   1.176   1.314  0.1144  0.2244  0.4700
  485SOL     OW 1466   3.284   2.771   0.998  0.5353 -0.6344  0.2083
  485SOL    HW1 1467   3.336   2.730   1.068  1.2737 -0.4017 -0.1905
  485SOL    HW2 1468   3.197   2.733   1.007  1.1116 -2.0679  0.0495
  486SOL     OW 1469   0.669   2.142   0.993  0.0168  0.1317 -0.0623
  486SOL    HW1 1470   0.627   2.181   0.916  0.4958 -0.4925 -0.6571
  486SOL    HW2 1471   0.760   2.128   0.966 -0.2789 -2.0219 -0.1313
  487SOL     OW 1472   1.524   2.520   1.179 -0.3919  0.4370  0.8669
  487SOL    HW1 1473   1.595   2.572   1.142 -1.7586  1.8680  0.1398
  487SOL    HW2 1474   1.491   2.467   1.107 -0.2638  0.0090  1.1199
  488SOL     OW 1475   0.788   2.411   0.489 -0.0188 -0.2629 -0.5647
  488SOL    HW1 1476   0.789   2.320   0.520 -2.3044  0.3523  1.6594
  488SOL    HW2 1477   0.768   2.462   0.567  2.2356  2.3300 -1.5273
  489SOL     OW 1478   1.653   2.779   1.350 -0.0702 -0.0342 -0.0633
  489SOL    HW1 1479   1.563   2.768   1.383  0.5393  0.2045  1.7925
  489SOL    HW2 1480   1.657   2.722   1.273 -2.1282  0.7998 -0.8537
  490SOL     OW 1481   2.114   1.054   1.159  0.5710  0.0169 -0.0187
  490SOL    HW1 1482   2.207   1.073   1.144  0.1471  1.3519 -1.1665
  490SOL    HW2 1483   2.107   0.959   1.148  1.6430  0.0145 -0.8461
  491SOL     OW 1484   1.937   1.123   0.954 -0.2108  0.4607 -0.6338
  491SOL    HW1 1485   1.929   1.054   0.889 -2.6611  0.2209 -0.1822
  491SOL    HW2 1486   1.985   1.082   1.027 -1.0079 -0.5546 -0.6580
  492SOL     OW 1487   1.781   1.820   0.608  0.2795 -0.0251 -0.0772
  492SOL    HW1 1488   1.803   1.727   0.607  0.0797 -0.1060  1.0623
  492SOL    HW2 1489   1.688   1.821   0.632  0.1685  0.4570 -0.5268
  493SOL     OW 1490   2.667   0.669   0.664  0.2417 -0.1819 -0.2375
  493SOL    HW1 1491   2.627   0.598   0.614  0.1694 -0.2399 -0.0986
  493SOL    HW2 1492   2.760   0.666   0.641  0.0331  0.4913 -1.2134
  494SOL     OW 1493   3.189   1.490   0.710 -0.4795  0.5619  0.0442
  494SOL    HW1 1494   3.117   1.460   0.655 -1.6198 -1.9607  2.6313
  494SOL    HW2 1495   3.168   1.581   0.731 -1.9070  0.4375 -0.7684
  495SOL     OW 1496   1.164   1.306   0.716  0.8308  0.2380 -0.3968
  495SOL    HW1 1497   1.235   1.345   0.767 -0.7936  0.3553  1.9188
  495SOL    HW2 1498   1.146   1.223   0.760 -0.0960 -0.0459 -1.2846
  496SOL     OW 1499   2.271   2.236   1.399  0.3699 -0.2084  0.0837
  496SOL    HW1 1500   2.343   2.198   1.450 -0.3290 -0.7373  0.6918
  496SOL    HW2 1501   2.214   2.162   1.379  0.1792  0.1453 -0.7185
  497SOL     OW 1502   2.486   0.238   1.287  0.0627 -0.1403 -0.0390
  497SOL    HW1 1503   2.564   0.267   1.332 -1.3198  2.9915  0.5813
  497SOL    HW2 1504   2.415   0.252   1.349 -1.3115 -0.4615 -1.4604
  498SOL     OW 1505   2.949   2.489   1.460  0.1202 -0.0774 -0.1427
  498SOL    HW1 1506   2.875   2.525   1.413 -0.2847 -0.5785  0.1012
  498SOL    HW2 1507   3.008   2.563   1.474 -1.4671  0.8963  1.8746
  499SOL     OW 1508   0.989   0.159   0.305  0.0351 -0.6601 -0.4159
  499SOL    HW1 1509   0.951   0.247   0.295  0.9502  0.0233  1.4808
  499SOL    HW2 1510   0.935   0.118   0.373 -0.4319 -1.6180 -1.3495
  500SOL     OW 1511   1.099   0.251   1.288  0.2169  0.0035  1.0834
  500SOL    HW1 1512   1.094   0.201   1.370 -1.5019 -0.4592  0.7297
  500SOL    HW2 1513   1.012   0.244   1.250  0.6646  1.1609 -0.2503
  501SOL     OW 1514   2.379   2.809   1.188 -0.2624  0.0791  0.2634
  501SOL    HW1 1515   2.449   2.765   1.141 -0.1437  1.0901 -0.5405
  501SOL    HW2 1516   2.422   2.882   1.234 -0.7377  0.5393 -0.0117
  502SOL     OW 1517   2.646   1.542   1.559 -0.2893  0.4056  0.3371
  502SOL    HW1 1518   2.578   1.540   1.627 -0.3519  1.0351  0.2964
  502SOL    HW2 1519   2.645   1.632   1.527 -0.6923 -0.0255 -0.9331
  503SOL     OW 1520   2.836   1.054   0.067  0.4460 -0.2418  0.3389
  503SOL    HW1 1521   2.864   1.143   0.091 -1.5323  0.5586 -0.1182
  503SOL    HW2 1522   2.823   1.010   0.151 -0.3967  0.5297  0.6282
  504SOL     OW 1523   1.778   1.947   1.874 -0.4883  0.3255 -0.3997
  504SOL    HW1 1524   1.760   2.025   1.926  0.6103  0.7505 -0.6372
  504SOL    HW2 1525   1.691   1.912   1.854 -0.9474 -0.0788  2.0110
  505SOL     OW 1526   2.732   1.941   0.378  0.0120  0.2126  0.0897
  505SOL    HW1 1527   2.641   1.963   0.362 -0.1098 -1.0016 -1.0163
  505SOL    HW2 1528   2.782   2.002   0.323 -0.1374  0.5425  0.3144
  506SOL     OW 1529   1.747   1.656   1.843  0.4318  0.2427 -0.2608
  506SOL    HW1 1530   1.803   1.733   1.852 -1.5082  1.7098 -0.1026
  506SOL    HW2 1531   1.712   1.662   1.754  1.4424 -1.3423 -0.8014
  507SOL     OW 1532   2.100   0.900   1.980  0.6785 -0.0334 -0.2615
  507SOL    HW1 1533   2.067   0.974   1.928 -2.0688 -0.6735  0.3744
  507SOL    HW2 1534   2.136   0.940   2.059 -3.6869  0.7709  1.6492
  508SOL     OW 1535   2.672   0.862   1.027 -0.7739 -0.3829 -0.2862
  508SOL    HW1 1536   2.611   0.856   1.100  0.4591  1.6981  1.0091
  508SOL    HW2 1537   2.745   0.807   1.053 -1.0320 -0.9314 -0.7127
  509SOL     OW 1538   1.267   2.490   1.293  0.1598 -0.4573 -0.0036
  509SOL    HW1 1539   1.218   2.475   1.212  0.5504 -0.1365 -0.3057
  509SOL    HW2 1540   1.353   2.521   1.264 -0.2389  1.2891  0.5608
  510SOL     OW 1541   2.547   2.337   1.682  0.6792 -0.6145  0.3939
  510SOL    HW1 1542   2.504   2.377   1.607  0.2893  0.4936  1.1757
  510SOL    HW2 1543   2.600   2.266   1.645  0.0047 -0.4982 -0.8380
  511SOL     OW 1544   3.336   0.652   1.435  0.1269 -0.1132  0.2351
  511SOL    HW1 1545   3.417   0.682   1.394  0.6472 -1.0275  0.5676
  511SOL    HW2 1546   3.301   0.730   1.479  0.7436  0.3221 -0.0269
  512SOL     OW 1547   1.046   2.718   0.223 -0.1493  0.2093 -0.1386
  512SOL    HW1 1548   1.140   2.699   0.228 -0.4271 -1.1842  0.1242
  512SOL    HW2 1549   1.040   2.811   0.245  1.0731  0.0759  0.9113
  513SOL     OW 1550   2.794   0.144   1.805 -0.1223 -0.0113  0.1236
  513SOL    HW1 1551   2.751   0.124   1.889  1.3052 -0.5690  0.7531
  513SOL    HW2 1552   2.855   0.072   1.792 -0.3411  0.0660 -1.4343
  514SOL     OW 1553   2.736   2.026   2.010 -0.3079  0.6128 -0.1889
  514SOL    HW1 1554   2.746   2.108   1.961 -2.2123  1.3639  0.5977
  514SOL    HW2 1555   2.690   1.968   1.950  3.3844 -0.9954 -1.8119
  515SOL     OW 1556   1.974   1.974   0.035  0.2006  0.7309 -0.1939
  515SOL    HW1 1557   1.886   1.999   0.065  0.4296 -0.8678  1.9892
  515SOL    HW2 1558   1.965   1.968  -0.061 -2.9652 -2.2437  0.0860
  516SOL     OW 1559   1.262   2.212   0.052  0.3399 -0.4755  0.4780
  516SOL    HW1 1560   1.273   2.132   0.001  0.1289 -0.6697  0.7279
  516SOL    HW2 1561   1.173   2.242   0.031  1.0607  0.7407 -1.0591
  517SOL     OW 1562   1.830   1.983   0.396 -0.3451  0.1449 -0.1491
  517SOL    HW1 1563   1.788   1.925   0.459  0.5239  1.0712  1.3302
  517SOL    HW2 1564   1.922   1.955   0.395 -0.6760 -1.0837 -2.4583
  518SOL     OW 1565   1.632   0.202   1.972 -0.0331  0.5786 -0.1888
  518SOL    HW1 1566   1.623   0.264   1.900 -0.1502  0.3355 -0.3854
  518SOL    HW2 1567   1.637   0.116   1.930 -0.9677  0.3534  0.1218
  519SOL     OW 1568   3.200   2.237   1.792 -0.3832 -0.1899  0.1462
  519SOL    HW1 1569   3.251   2.158   1.807 -1.2230 -0.7382  0.2094
  519SOL    HW2 1570   3.132   2.235   1.860 -1.7255 -0.5570 -1.1500
  520SOL     OW 1571   1.481   2.440   0.917  0.1364  0.9333  0.4012
  520SOL    HW1 1572   1.405   2.483   0.878  0.0497  0.6974  0.3053
  520SOL    HW2 1573   1.536   2.416   0.842 -0.3101 -0.0508  0.3676
  521SOL     OW 1574   2.508   1.612   1.263  0.7736  0.0761 -0.0216
  521SOL    HW1 1575   2.534   1.695   1.303  3.4296 -1.4137  1.6390
  521SOL    HW2 1576   2.530   1.621   1.170 -0.2310  1.6365 -0.1369
  522SOL     OW 1577   2.291   2.428   0.163 -0.0997 -0.0190 -0.1596
  522SOL    HW1 1578   2.205   2.406   0.127 -0.0777  1.7666 -1.4512
  522SOL    HW2 1579   2.272   2.487   0.236  0.0113 -0.1560 -0.0195
  523SOL     OW 1580   3.448   1.055   1.545  0.3502 -0.2575 -0.2346
  523SOL    HW1 1581   3.514   0.995   1.512  0.0005  0.0268 -1.4811
  523SOL    HW2 1582   3.436   1.119   1.475  0.0429  0.7321  0.6918
  524SOL     OW 1583   1.620   0.613   0.884 -0.6135  0.1823  0.4760
  524SOL    HW1 1584   1.613   0.527   0.925 -1.3518 -0.2659 -0.5524
  524SOL    HW2 1585   1.541   0.621   0.830  0.2667  0.7621 -0.8017
  525SOL     OW 1586   3.333   2.753   1.627 -0.7883  0.0007  0.6059
  525SOL    HW1 1587   3.301   2.679   1.576  1.3804  0.7782 -2.1587
  525SOL    HW2 1588   3.380   2.713   1.700 -0.1391 -1.3744 -0.5192
  526SOL     OW 1589   1.497   0.253   0.857 -0.5471 -0.2577 -1.0214
  526SOL    HW1 1590   1.468   0.233   0.768  0.1045 -1.1419 -1.0470
  526SOL    HW2 1591   1.563   0.186   0.877 -0.8134 -0.1861  0.1934
   2.82020   2.82020   1.99418   0.00000   0.00000   0.00000   0.00000   1.41010   1.41010
