alanine dipeptide in vacuum in water
 1591
    1ACE   HH31    1   2.972   2.037   0.506 -1.2341  0.4748  2.5094
    1ACE    CH3    2   3.081   2.044   0.512 -1.0001 -0.0453 -0.0179
    1ACE   HH32    3   3.126   2.104   0.433 -0.0977 -0.7460 -0.0540
    1ACE   HH33    4   3.113   1.940   0.500 -1.8295 -0.2079 -1.0088
    1ACE      C    5   3.123   2.108   0.642  0.1325 -0.0563  0.4768
    1ACE      O    6   3.185   2.042   0.729 -0.1596  0.2088  0.0070
    2ALA      N    7   3.081   2.234   0.664  0.2338 -0.0882  0.4605
    2ALA      H    8   3.022   2.287   0.602 -0.5028 -0.4733  0.8247
    2ALA     CA    9   3.109   2.308   0.782 -0.1863  0.5426  0.0943
    2ALA     HA   10   3.196   2.262   0.829 -0.6618 -0.9692 -0.4371
    2ALA     CB   11   3.142   2.452   0.736 -0.0052 -0.2207  0.6830
    2ALA    HB1   12   3.056   2.500   0.692  0.0951 -3.0940 -3.1799
    2ALA    HB2   13   3.182   2.499   0.826 -1.1855  0.3644  0.9191
    2ALA    HB3   14   3.207   2.443   0.649 -1.8431  1.8824 -1.0111
    2ALA      C   15   2.993   2.315   0.881  0.4274 -0.3138 -0.1220
    2ALA      O   16   3.006   2.301   1.002  0.1229 -0.3813  0.0583
    3NME      N   17   2.873   2.344   0.826 -0.0283 -0.0114 -0.1890
    3NME      H   18   2.869   2.368   0.727 -0.1128  2.7423  0.3957
    3NME    CH3   19   2.739   2.335   0.891 -0.8902  0.5631 -0.3700
    3NME   HH31   20   2.674   2.411   0.849  1.1354  2.3463 -0.4724
    3NME   HH32   21   2.743   2.366   0.995  0.8579  0.0926 -0.2543
    3NME   HH33   22   2.696   2.235   0.894  2.2773 -0.9163  1.5078
    4SOL     OW   23   2.794   1.132   0.249 -0.1370 -0.3602 -0.3441
    4SOL    HW1   24   2.746   1.212   0.272  3.1645  1.3999  1.2227
    4SOL    HW2   25   2.730   1.062   0.257 -2.3270  1.7128  2.0485
    5SOL     OW   26   1.407   1.975   1.493  0.1154  0.3661 -0.0409
    5SOL    HW1   27   1.483   1.923   1.521  2.0393  2.2784 -1.3283
    5SOL    HW2   28   1.344   1.965   1.564  1.6148 -1.2270  1.1718
    6SOL     OW   29   2.686   0.196   1.839 -0.4735 -0.4814  0.1345
    6SOL    HW1   30   2.668   0.162   1.751 -0.1687 -0.9816  0.2667
    6SOL    HW2   31   2.599   0.203   1.880 -0.5593 -0.8558  0.0166
    7SOL     OW   32   1.552   2.592   0.197  0.2512 -0.5950 -0.4160
    7SOL    HW1   33   1.592   2.586   0.284 -1.1937 -3.6247  0.1793
    7SOL    HW2   34   1.458   2.581   0.213 -0.5206  2.5948 -2.1011
    8SOL     OW   35   1.776   2.429   0.069  0.0925 -0.1495 -0.0942
    8SOL    HW1   36   1.827   2.482   0.009 -2.0648  2.2555  0.0092
    8SOL    HW2   37   1.708   2.488   0.101 -1.6938 -2.6523  1.0750
    9SOL     OW   38   0.093   0.957   0.092 -0.8756  0.2057 -0.1871
    9SOL    HW1   39   0.086   1.004   0.008 -1.0294  0.4503 -0.0397
    9SOL    HW2   40   0.062   1.020   0.157 -1.9999 -0.4279 -0.0845
   10SOL     OW   41   0.748   0.371   0.046  0.1867 -0.0410 -0.1255
   10SOL    HW1   42   0.750   0.301  -0.019  0.2662 -2.3341  2.1810
   10SOL    HW2   43   0.655   0.382   0.067  0.3047 -1.3689  1.3265
   11SOL     OW   44   2.844   2.231   1.663 -0.0822  0.2002 -0.3852
   11SOL    HW1   45   2.763   2.274   1.637 -0.3809 -1.1132 -1.8080
   11SOL    HW2   46   2.818   2.169   1.731 -0.0305  0.7196  0.1102
   12SOL     OW   47   1.539   1.667   1.316  0.1608  0.1615  0.0217
   12SOL    HW1   48   1.489   1.586   1.324  1.0332 -0.3505  0.4842
   12SOL    HW2   49   1.627   1.638   1.292  0.0524  1.0922 -1.5760
   13SOL     OW   50   2.749   0.468   1.978  0.6191 -0.1768 -0.7774
   13SOL    HW1   51   2.723   0.539   1.920 -1.6716  0.7693  1.2419
   13SOL    HW2   52   2.723   0.388   1.932  0.7861  0.4281 -1.9373
   14SOL     OW   53   1.154   0.088   0.180  0.4293 -0.1167 -0.0618
   14SOL    HW1   54   1.235   0.039   0.168 -0.3300 -1.8372  1.3570
   14SOL    HW2   55   1.146   0.142   0.101  2.5005 -0.5436 -0.6084
   15SOL     OW   56   2.131   1.642   0.363  0.2263 -0.1256 -0.4130
   15SOL    HW1   57   2.196   1.679   0.304  0.4846  1.1836  0.6365
   15SOL    HW2   58   2.051   1.691   0.344  0.3817  0.5040  0.4777
   16SOL     OW   59   2.426   1.610   0.903 -0.5368  0.0371  0.5723
   16SOL    HW1   60   2.420   1.646   0.815 -0.5970 -0.4142  0.3882
   16SOL    HW2   61   2.490   1.539   0.896 -2.0205 -1.3497  0.4163
   17SOL     OW   62   2.343   2.628   0.599  0.6235  0.0630  0.4134
   17SOL    HW1   63   2.353   2.719   0.628 -0.1393  0.0753  0.6692
   17SOL    HW2   64   2.420   2.583   0.634 -1.1464 -0.3665  4.3429
   18SOL     OW   65   2.645   0.897   0.303 -0.4055 -0.5477  0.7403
   18SOL    HW1   66   2.627   0.810   0.268 -2.9122  0.0864  0.2195
   18SOL    HW2   67   2.565   0.920   0.351 -0.2007  1.8170  0.0695
   19SOL     OW   68   2.631   1.617   0.505 -0.2364  0.4427 -0.3064
   19SOL    HW1   69   2.541   1.621   0.538  0.1117  0.8826  0.6315
   19SOL    HW2   70   2.650   1.523   0.499 -0.9618  0.3387 -1.1206
   20SOL     OW   71   1.250   1.086   0.680 -0.1096 -0.3411  0.1151
   20SOL    HW1   72   1.241   1.084   0.584  0.7397  2.1366 -0.0664
   20SOL    HW2   73   1.174   1.135   0.710 -1.0377 -2.1373  0.8889
   21SOL     OW   74   2.419   2.737   1.121 -0.0046  0.2584  0.5012
   21SOL    HW1   75   2.488   2.776   1.175  1.7322 -1.5199 -0.3171
   21SOL    HW2   76   2.457   2.734   1.033 -1.6255  0.3483 -0.2307
   22SOL     OW   77   2.972   0.297   0.968  0.0886 -0.3563  0.5780
   22SOL    HW1   78   3.043   0.303   1.032 -0.1589 -0.1048  0.8363
   22SOL    HW2   79   2.966   0.203   0.948 -0.1332 -0.5020  1.2781
   23SOL     OW   80   1.270   2.181   0.777  0.2369 -0.1407 -0.3838
   23SOL    HW1   81   1.293   2.150   0.864  0.3231  0.1153 -0.3131
   23SOL    HW2   82   1.212   2.255   0.792 -0.7560 -0.8637 -0.5636
   24SOL     OW   83   0.979   2.712   0.330 -0.1837  0.6038 -0.2352
   24SOL    HW1   84   0.912   2.766   0.372 -1.2186 -0.0784 -0.9875
   24SOL    HW2   85   1.039   2.775   0.289 -2.0739  1.2237 -2.2135
   25SOL     OW   86   1.436   2.582   1.869 -0.0884  0.0345 -0.1550
   25SOL    HW1   87   1.422   2.670   1.832 -0.1392 -0.2532 -0.8335
   25SOL    HW2   88   1.358   2.533   1.844 -0.2521 -0.0874  0.5885
   26SOL     OW   89   1.492   0.155   1.908 -0.0656  0.2990 -0.8010
   26SOL    HW1   90   1.442   0.098   1.849 -0.9828  0.8012 -0.5259
   26SOL    HW2   91   1.465   0.128   1.996  0.8343 -0.0275 -0.6182
   27SOL     OW   92   2.936   1.010   1.074 -0.2115  0.0736 -0.4648
   27SOL    HW1   93   3.027   1.038   1.064  0.6996 -1.9187  1.4413
   27SOL    HW2   94   2.885   1.084   1.043  2.0475  1.1641 -1.8279
   28SOL     OW   95   0.678   2.272   0.086  0.2239 -0.0742  0.0177
   28SOL    HW1   96   0.742   2.238   0.149  0.0635 -1.1335 -0.3758
   28SOL    HW2   97   0.707   2.239   0.001  1.0166  2.1754 -0.6596
   29SOL     OW   98   2.581   0.582   0.385  0.2416 -0.1231  0.3351
   29SOL    HW1   99   2.488   0.573   0.366  0.1209 -2.4418  1.6274
   29SOL    HW2  100   2.619   0.611   0.302 -1.6632  1.6062 -0.0221
   30SOL     OW  101   2.697   0.688   1.832  0.6847  0.2631 -0.5262
   30SOL    HW1  102   2.771   0.733   1.873  0.7124 -0.9179  0.8030
   30SOL    HW2  103   2.684   0.733   1.749  1.7330  1.6552  0.0316
   31SOL     OW  104   3.049   2.089   1.407 -0.1089  0.0975  0.5318
   31SOL    HW1  105   2.971   2.120   1.453  0.8877  0.1642  2.2164
   31SOL    HW2  106   3.022   2.089   1.315 -1.4732  1.9811  0.8560
   32SOL     OW  107   3.462   1.579   2.002 -0.5085 -0.3219  0.1658
   32SOL    HW1  108   3.462   1.507   1.939  0.6732  1.8239 -2.4845
   32SOL    HW2  109   3.472   1.658   1.949 -0.4755  1.7539  3.0044
   33SOL     OW  110   1.377   1.879   1.893  0.2678 -0.0902  0.0489
   33SOL    HW1  111   1.305   1.892   1.831  0.5642 -0.0393 -0.2840
   33SOL    HW2  112   1.392   1.965   1.932  2.4695  0.7605 -2.4103
   34SOL     OW  113   1.910   0.545   0.867  0.8401  0.1801 -0.3419
   34SOL    HW1  114   1.893   0.452   0.879  1.8449 -0.0784 -0.7559
   34SOL    HW2  115   1.926   0.579   0.955 -1.1400  0.3248 -0.0082
   35SOL     OW  116   1.773   0.968   0.955 -0.0545 -0.1360  0.2915
   35SOL    HW1  117   1.684   0.995   0.980 -0.7360 -1.5341 -0.4565
   35SOL    HW2  118   1.799   1.031   0.888 -1.9938 -1.7021 -2.1280
   36SOL     OW  119   2.600   2.507   0.346 -0.8886  0.1592 -0.5070
   36SOL    HW1  120   2.531   2.552   0.297 -1.7300  0.3879  0.8203
   36SOL    HW2  121   2.605   2.555   0.429  0.5357 -0.1661 -0.3724
   37SOL     OW  122   1.176   2.468   0.849 -0.0567 -0.0337  0.4938
   37SOL    HW1  123   1.167   2.548   0.797 -1.2070 -0.4635  0.0046
   37SOL    HW2  124   1.154   2.494   0.938 -2.9607 -0.2918 -0.0703
   38SOL     OW  125   1.118   2.228   0.461  0.1595  0.4900  0.2154
   38SOL    HW1  126   1.090   2.318   0.476 -0.3749  0.3437  0.1502
   38SOL    HW2  127   1.051   2.192   0.403  0.7911  0.2781 -0.3922
   39SOL     OW  128   2.778   1.794   0.124 -0.0289  0.3438 -0.3674
   39SOL    HW1  129   2.699   1.775   0.073 -0.6074 -0.5920  0.8094
   39SOL    HW2  130   2.747   1.852   0.194 -0.2901 -1.9471  1.5709
   40SOL     OW  131   3.134   0.800   0.704  0.2002  0.4284  0.4458
   40SOL    HW1  132   3.152   0.738   0.633  0.0637  1.3578 -0.4217
   40SOL    HW2  133   3.120   0.744   0.781  0.8142 -0.5795 -0.1410
   41SOL     OW  134   2.367   1.575   0.534  0.4084  0.0975 -0.0007
   41SOL    HW1  135   2.275   1.550   0.542 -0.1364  1.7270 -0.9771
   41SOL    HW2  136   2.382   1.586   0.440  1.2137  1.2237  0.2387
   42SOL     OW  137   2.906   1.464   1.344 -0.2852 -0.3699  0.0121
   42SOL    HW1  138   2.994   1.428   1.330  0.6260  0.5641  2.6826
   42SOL    HW2  139   2.895   1.527   1.273  1.7474  0.3684  0.2650
   43SOL     OW  140   1.802   2.709   0.937 -0.0151  0.1569  0.7790
   43SOL    HW1  141   1.835   2.624   0.907  0.7569  0.5683  0.4442
   43SOL    HW2  142   1.807   2.765   0.860 -2.8049 -0.0920  0.3030
   44SOL     OW  143   1.548   2.257   0.293 -0.7904 -0.2865  0.2941
   44SOL    HW1  144   1.512   2.176   0.256  0.2143  0.5074 -2.7636
   44SOL    HW2  145   1.475   2.296   0.341 -1.5563 -2.5371  1.0830
   45SOL     OW  146   0.868   1.343   1.198  0.6728 -0.0196  0.2755
   45SOL    HW1  147   0.963   1.340   1.208  1.0395  2.5495 -1.4219
   45SOL    HW2  148   0.853   1.335   1.104 -0.7005  0.5505  0.4209
   46SOL     OW  149   3.823   0.153   1.674 -0.3145 -0.4415  0.6309
   46SOL    HW1  150   3.731   0.180   1.669 -0.2631 -0.0961  1.4811
   46SOL    HW2  151   3.829   0.078   1.615 -1.8890 -2.5987  3.0244
   47SOL     OW  152   1.775   2.316   0.461 -0.2762  0.4688 -0.5008
   47SOL    HW1  153   1.833   2.244   0.435 -3.1352 -2.1202 -0.3617
   47SOL    HW2  154   1.699   2.308   0.402 -2.8123  0.2664  2.5121
   48SOL     OW  155   1.997   0.487   0.278  0.1296  0.7672  0.1792
   48SOL    HW1  156   1.950   0.478   0.361  0.4125 -0.2287  0.2470
   48SOL    HW2  157   2.089   0.481   0.302  0.1916 -1.0699 -0.3386
   49SOL     OW  158   0.233   0.072   0.196  0.0624  0.3695  0.2188
   49SOL    HW1  159   0.189   0.141   0.148 -0.1366  0.6127  0.7437
   49SOL    HW2  160   0.168   0.040   0.258  0.6494  0.8300  1.0986
   50SOL     OW  161   1.168   2.685   1.087  0.4840  0.1045 -0.1374
   50SOL    HW1  162   1.262   2.702   1.095  0.9737 -2.5627  0.9331
   50SOL    HW2  163   1.146   2.636   1.167 -1.8513  0.7203 -0.3297
   51SOL     OW  164   2.221   2.559   0.053  0.3044  0.2149  0.4435
   51SOL    HW1  165   2.161   2.487   0.069  0.2976  0.2321  0.4958
   51SOL    HW2  166   2.164   2.633   0.030  0.1325  0.8602  2.7261
   52SOL     OW  167   2.106   0.552   0.680 -0.0784 -0.2410  0.3758
   52SOL    HW1  168   2.052   0.581   0.753  0.8518 -0.3155  1.1231
   52SOL    HW2  169   2.069   0.467   0.656 -0.9274  0.1763  0.1848
   53SOL     OW  170   2.598   2.094   1.398 -0.1441  0.1169  0.4551
   53SOL    HW1  171   2.627   2.011   1.435  0.6891  0.0729 -0.2665
   53SOL    HW2  172   2.517   2.073   1.352  1.1204 -0.7738 -1.5089
   54SOL     OW  173   0.497   1.475   0.158  0.2741  0.7960  0.3176
   54SOL    HW1  174   0.471   1.419   0.085  0.1061 -1.2051  1.8024
   54SOL    HW2  175   0.474   1.563   0.130 -3.4009 -0.2623 -0.5788
   55SOL     OW  176   0.874   2.346   0.383  0.4150  0.2088 -0.0597
   55SOL    HW1  177   0.878   2.392   0.299  0.9946 -0.5716 -0.4804
   55SOL    HW2  178   0.851   2.413   0.447  0.6773  0.9574 -0.7373
   56SOL     OW  179   2.393   0.293   1.757 -0.5306 -0.3750 -0.4866
   56SOL    HW1  180   2.322   0.305   1.694 -1.9123  1.1483  1.2700
   56SOL    HW2  181   2.462   0.353   1.727 -0.4753 -0.8943 -1.4482
   57SOL     OW  182   1.718   0.844   1.605  0.4304  0.0161 -0.2236
   57SOL    HW1  183   1.649   0.810   1.547  0.6324  2.0123 -1.7504
   57SOL    HW2  184   1.671   0.900   1.667  0.6122  1.4920 -1.3534
   58SOL     OW  185   3.304   0.340   1.465  0.0138 -0.5157 -0.4040
   58SOL    HW1  186   3.347   0.262   1.501 -1.3743 -0.2514  2.0912
   58SOL    HW2  187   3.374   0.405   1.460  0.5860 -1.0248  0.5042
   59SOL     OW  188   3.107   1.349   1.181 -0.4823 -0.5234 -0.3700
   59SOL    HW1  189   3.141   1.286   1.117  0.3832 -0.8173  0.3568
   59SOL    HW2  190   3.165   1.339   1.256 -2.0567 -0.8673  0.8441
   60SOL     OW  191   3.498   1.825   1.824  0.9537  0.0974  0.6627
   60SOL    HW1  192   3.457   1.790   1.745  1.5254  0.8278  0.0122
   60SOL    HW2  193   3.463   1.914   1.831  2.1846  0.6510  0.2252
   61SOL     OW  194   0.782   1.876   0.902  0.6548  0.8066  0.0414
   61SOL    HW1  195   0.775   1.888   0.807  0.1475 -0.1197 -0.0457
   61SOL    HW2  196   0.875   1.889   0.921  0.8161  0.6848 -0.6277
   62SOL     OW  197   2.342   1.814   0.174  0.1012  0.1466  0.3046
   62SOL    HW1  198   2.298   1.889   0.214  0.8262  0.4650  0.5127
   62SOL    HW2  199   2.291   1.796   0.095 -0.3866  0.5266  0.5299
   63SOL     OW  200   1.943   1.277   1.173  0.1864  0.5370 -0.8851
   63SOL    HW1  201   1.856   1.311   1.151 -0.1917 -0.5718 -1.1449
   63SOL    HW2  202   1.929   1.184   1.189  1.2021  0.4991 -0.1530
   64SOL     OW  203   2.651   2.609   1.708  0.3723  0.1169  0.1791
   64SOL    HW1  204   2.616   2.676   1.767  2.9643  2.0389 -0.2839
   64SOL    HW2  205   2.587   2.605   1.636 -0.7773  0.6838  1.1280
   65SOL     OW  206   2.726   1.323   0.586  0.0152 -0.0726 -0.3603
   65SOL    HW1  207   2.642   1.335   0.630  0.7289 -0.9092  1.3347
   65SOL    HW2  208   2.708   1.342   0.494 -1.2377  3.3878  0.4197
   66SOL     OW  209   2.827   1.682   0.773 -0.0467 -0.0761  0.0986
   66SOL    HW1  210   2.769   1.631   0.829  0.4010  0.2086  0.8445
   66SOL    HW2  211   2.771   1.714   0.703 -0.8728  0.4721  0.9823
   67SOL     OW  212   2.492   2.347   1.793 -0.4148 -0.3479  0.0853
   67SOL    HW1  213   2.575   2.347   1.841 -0.6539 -2.7819  0.6347
   67SOL    HW2  214   2.487   2.259   1.755 -3.2394 -0.6726  1.0194
   68SOL     OW  215   2.044   1.965   0.097 -0.5014 -0.2431 -0.4058
   68SOL    HW1  216   1.950   1.968   0.076 -0.3281 -1.5258 -1.5734
   68SOL    HW2  217   2.086   1.948   0.012  0.7944  0.3374  0.1021
   69SOL     OW  218   0.999   1.890   0.273  0.1932  0.5771  0.5620
   69SOL    HW1  219   1.093   1.871   0.267  0.0887  0.3022 -0.3072
   69SOL    HW2  220   0.969   1.892   0.182 -0.8548 -0.4057  0.8732
   70SOL     OW  221   2.889   1.122   0.562  0.1449 -0.9624 -0.0493
   70SOL    HW1  222   2.821   1.190   0.556  0.6112 -0.3839  0.9446
   70SOL    HW2  223   2.846   1.049   0.607  0.7269  0.2251  2.6408
   71SOL     OW  224   2.303   0.318   1.254 -0.0819  0.3055 -0.3573
   71SOL    HW1  225   2.313   0.238   1.306 -1.9014 -0.8785 -1.6767
   71SOL    HW2  226   2.310   0.288   1.163 -1.7197  1.4483 -0.9219
   72SOL     OW  227   1.652   0.322   0.726 -0.2036 -0.2489  0.2290
   72SOL    HW1  228   1.616   0.298   0.641  0.6620  1.4242 -0.6708
   72SOL    HW2  229   1.585   0.376   0.766  0.1210  0.5284 -0.2383
   73SOL     OW  230   2.729   0.955   1.480 -0.4792 -0.5887  0.2212
   73SOL    HW1  231   2.769   0.970   1.566 -0.0504 -0.7686  0.0606
   73SOL    HW2  232   2.763   1.026   1.426 -1.6535  0.1953  0.4800
   74SOL     OW  233   3.119   2.451   1.353  0.3737  0.9288  0.4941
   74SOL    HW1  234   3.041   2.492   1.391  1.2156  2.3186  0.7903
   74SOL    HW2  235   3.125   2.366   1.397 -0.9354  0.8131  0.4937
   75SOL     OW  236   3.583   1.232   1.422  0.3969  0.6572  0.2782
   75SOL    HW1  237   3.611   1.296   1.487 -0.5866  1.0018  0.3924
   75SOL    HW2  238   3.618   1.265   1.339 -0.3246  1.5076  0.2958
   76SOL     OW  239   2.449   2.095   1.711 -0.0221 -0.6613  0.1097
   76SOL    HW1  240   2.527   2.048   1.741 -1.0612 -2.0528  0.7012
   76SOL    HW2  241   2.377   2.033   1.723 -1.0685  0.1614 -1.5386
   77SOL     OW  242   3.442   1.404   1.814  0.1272 -0.2429  0.2358
   77SOL    HW1  243   3.523   1.388   1.765  0.3740  1.2516  0.1285
   77SOL    HW2  244   3.397   1.319   1.813  1.8615 -1.2202  0.6504
   78SOL     OW  245   2.504   1.693   1.988  0.2494  0.5885 -0.5266
   78SOL    HW1  246   2.454   1.769   2.017  0.8431  1.2138 -1.1028
   78SOL    HW2  247   2.474   1.678   1.898 -0.9703 -0.8119  0.0742
   79SOL     OW  248   0.827   2.534   0.617  0.1397 -0.1716 -0.6722
   79SOL    HW1  249   0.810   2.445   0.648 -0.3231  0.0570 -0.2472
   79SOL    HW2  250   0.751   2.585   0.646  1.3433  0.8219  0.9948
   80SOL     OW  251   1.742   2.157   0.092 -0.8187 -0.0214 -0.1189
   80SOL    HW1  252   1.713   2.160   0.183 -2.5589 -1.9918 -0.5184
   80SOL    HW2  253   1.763   2.247   0.069 -2.0225  0.7739  1.7249
   81SOL     OW  254   2.848   2.442   0.507 -0.2794 -0.3527 -0.0330
   81SOL    HW1  255   2.906   2.519   0.505 -1.2986  0.4257 -0.9461
   81SOL    HW2  256   2.837   2.418   0.415 -0.6536 -1.0816  0.1990
   82SOL     OW  257   1.441   1.175   0.855 -0.1754  0.4000 -0.2234
   82SOL    HW1  258   1.397   1.112   0.798  1.9010 -0.4978 -0.9638
   82SOL    HW2  259   1.461   1.125   0.935  0.3284  0.4933 -0.2863
   83SOL     OW  260   2.435   1.318   1.052  0.2384  0.2849  0.5652
   83SOL    HW1  261   2.368   1.276   1.106 -1.1169  1.5630 -0.0649
   83SOL    HW2  262   2.416   1.288   0.963 -0.3660  1.7125  0.1946
   84SOL     OW  263   1.139   1.300   1.092  0.0610  0.4325 -0.2987
   84SOL    HW1  264   1.143   1.332   1.002 -1.8066  0.0650 -0.5588
   84SOL    HW2  265   1.116   1.207   1.084  0.6341  0.2049  0.5471
   85SOL     OW  266   2.097   2.243   1.407  0.5474  0.6587 -0.4184
   85SOL    HW1  267   2.179   2.196   1.424  0.1525 -0.7063 -1.9927
   85SOL    HW2  268   2.030   2.187   1.445  0.2709  1.5579  0.4741
   86SOL     OW  269   2.463   2.123   0.178  0.2834  0.3229 -0.0512
   86SOL    HW1  270   2.515   2.177   0.237  0.4652 -0.8170  0.8860
   86SOL    HW2  271   2.527   2.084   0.118  0.3068  0.2489  0.0206
   87SOL     OW  272   1.736   0.017   1.504 -0.3638 -0.1923 -0.1034
   87SOL    HW1  273   1.656   0.006   1.454 -0.0990  1.3075 -0.9140
   87SOL    HW2  274   1.708   0.055   1.587 -0.4764  0.6404 -0.5150
   88SOL     OW  275   3.407   0.853   1.837 -0.3387  0.1808 -0.1896
   88SOL    HW1  276   3.434   0.892   1.921 -1.9804 -0.8275  0.8780
   88SOL    HW2  277   3.488   0.839   1.789  0.6247  1.0141  1.1296
   89SOL     OW  278   2.685   1.474   0.907  0.3532 -0.5858 -0.3034
   89SOL    HW1  279   2.705   1.410   0.838  0.7234  1.2911 -2.0380
   89SOL    HW2  280   2.767   1.484   0.955  0.7337 -0.2788 -1.0089
   90SOL     OW  281   2.397   0.787   0.655  0.2568  0.1092  0.3766
   90SOL    HW1  282   2.327   0.852   0.665  1.8255  1.6305  2.1066
   90SOL    HW2  283   2.400   0.742   0.739  0.2332 -1.1842 -0.2852
   91SOL     OW  284   3.068   0.769   1.196 -0.4175  0.6600 -0.0665
   91SOL    HW1  285   3.071   0.813   1.281 -0.3403  1.0177 -0.2519
   91SOL    HW2  286   3.053   0.840   1.133 -2.2033  0.2138 -0.1991
   92SOL     OW  287   3.853   1.968   1.963 -0.2993  0.2693 -0.3703
   92SOL    HW1  288   3.784   1.928   2.016  0.5540  0.5501  0.9781
   92SOL    HW2  289   3.850   1.919   1.881 -2.4041  0.5783 -0.5544
   93SOL     OW  290   2.623   2.547   0.630  0.5560 -0.0371 -0.0768
   93SOL    HW1  291   2.651   2.628   0.672  0.1069  0.2539 -0.3312
   93SOL    HW2  292   2.705   2.505   0.603  0.8679  2.4909 -4.0562
   94SOL     OW  293   1.150   0.760   0.294  0.0254 -0.4560 -0.0796
   94SOL    HW1  294   1.232   0.751   0.344 -0.3752  0.3529  0.7644
   94SOL    HW2  295   1.092   0.693   0.330  0.4537 -1.3542 -1.0110
   95SOL     OW  296   2.009   1.069   0.779 -0.1274 -0.4793 -0.1942
   95SOL    HW1  297   1.940   1.036   0.722  0.9447 -1.0626 -1.1823
   95SOL    HW2  298   2.051   0.990   0.814  1.0087 -0.1545 -0.8020
   96SOL     OW  299   2.322   2.103   1.463  0.0246 -0.3457  0.6768
   96SOL    HW1  300   2.288   2.013   1.464  1.6389 -1.0878 -1.9846
   96SOL    HW2  301   2.393   2.102   1.527  1.8836 -1.8880 -1.2533
   97SOL     OW  302   0.803   2.709   0.980 -0.2642 -0.9034  0.7351
   97SOL    HW1  303   0.784   2.704   0.886 -0.3872 -1.3529  0.7807
   97SOL    HW2  304   0.896   2.729   0.984 -0.7130  1.5725  0.5094
   98SOL     OW  305   3.205   1.587   1.045  0.3981  0.3853 -0.1556
   98SOL    HW1  306   3.267   1.581   0.973  0.8793 -1.2912  0.3391
   98SOL    HW2  307   3.130   1.535   1.017  0.2255  0.4322  0.2078
   99SOL     OW  308   1.753   1.979   1.735  0.1163 -0.1302 -0.2016
   99SOL    HW1  309   1.704   1.992   1.654 -1.6043  1.3949  1.0099
   99SOL    HW2  310   1.740   1.887   1.756 -0.8309 -0.1415 -0.7894
  100SOL     OW  311   1.297   2.049   1.005  0.0090 -0.2631 -0.5401
  100SOL    HW1  312   1.368   2.024   1.065  2.7801  3.3093 -1.9627
  100SOL    HW2  313   1.265   2.132   1.040 -0.1670  0.5291 -2.4926
  101SOL     OW  314   3.261   1.056   0.754  0.0071 -0.4669  0.4629
  101SOL    HW1  315   3.220   1.122   0.698  0.1036 -1.2243 -0.5248
  101SOL    HW2  316   3.217   0.975   0.732 -0.3557 -0.7047  1.9227
  102SOL     OW  317   2.198   2.155   0.271  0.2948 -0.0916  0.1486
  102SOL    HW1  318   2.290   2.134   0.252  0.4274 -2.9326  3.0872
  102SOL    HW2  319   2.148   2.102   0.208  0.6227  0.4408 -0.5793
  103SOL     OW  320   1.384   0.741   1.772 -0.0272  0.1985  0.1645
  103SOL    HW1  321   1.442   0.670   1.798 -0.7985 -0.0741  1.1976
  103SOL    HW2  322   1.435   0.792   1.709  1.3017 -0.0721  0.9891
  104SOL     OW  323   3.150   0.029   1.318 -0.2339 -0.0811 -0.3328
  104SOL    HW1  324   3.154   0.020   1.413  0.2991  0.1668 -0.3269
  104SOL    HW2  325   3.229  -0.016   1.287 -0.1553  0.2599 -0.6274
  105SOL     OW  326   3.473   0.135   1.771 -0.0121  0.0755 -0.1316
  105SOL    HW1  327   3.489   0.042   1.787  0.5885  0.1894 -0.0268
  105SOL    HW2  328   3.510   0.152   1.685  0.6446  0.3952  0.2040
  106SOL     OW  329   2.550   2.729   0.895  0.1203 -0.2006 -0.2152
  106SOL    HW1  330   2.633   2.697   0.931  0.2646  0.7021  0.2627
  106SOL    HW2  331   2.576   2.775   0.815  0.2507  1.2482  0.6300
  107SOL     OW  332   1.508   1.793   0.748  1.0913  0.2147 -0.3818
  107SOL    HW1  333   1.505   1.698   0.736  3.0017 -0.0202  0.6743
  107SOL    HW2  334   1.437   1.811   0.810  1.0613 -0.6164 -0.1556
  108SOL     OW  335   2.620   1.913   0.915  0.7682  0.4046 -0.8237
  108SOL    HW1  336   2.611   1.889   1.007 -0.0610  0.4392 -0.8848
  108SOL    HW2  337   2.530   1.917   0.883  1.0418  0.5906 -1.5857
  109SOL     OW  338   1.405   1.215   0.252 -0.2827  0.4536  0.4199
  109SOL    HW1  339   1.401   1.122   0.274 -1.0117  0.5026  0.5403
  109SOL    HW2  340   1.324   1.232   0.204 -0.8748  1.3272  1.6539
  110SOL     OW  341   3.674   0.694   1.801 -0.0160 -0.4829  0.1274
  110SOL    HW1  342   3.738   0.667   1.867  0.2780 -1.2735 -0.4644
  110SOL    HW2  343   3.725   0.704   1.721 -0.4142  0.2211 -0.0392
  111SOL     OW  344   1.809   2.486   1.272 -0.4063 -0.5374 -0.1297
  111SOL    HW1  345   1.825   2.543   1.347 -2.1791 -2.3518  1.7761
  111SOL    HW2  346   1.891   2.437   1.261  1.3401  2.5531 -2.1500
  112SOL     OW  347   2.784   0.409   0.423  0.2863  0.1150  0.2489
  112SOL    HW1  348   2.843   0.468   0.470 -0.4355  1.0484  0.0312
  112SOL    HW2  349   2.700   0.456   0.421 -0.3414 -0.9691  0.1495
  113SOL     OW  350   0.395   2.784   0.428  0.2962 -0.1203 -0.3327
  113SOL    HW1  351   0.330   2.771   0.358 -0.8510 -0.5545  0.7674
  113SOL    HW2  352   0.348   2.834   0.495  1.3045  0.1024  0.2280
  114SOL     OW  353   1.198   2.556   1.320 -0.4286 -0.2813 -0.0091
  114SOL    HW1  354   1.265   2.497   1.284 -0.0232 -1.2000  2.0960
  114SOL    HW2  355   1.120   2.502   1.330 -0.4158 -0.1631  0.8158
  115SOL     OW  356   1.438   1.384   1.089  0.1553 -0.7667 -0.0957
  115SOL    HW1  357   1.374   1.365   1.158  0.9250 -2.4673  0.2073
  115SOL    HW2  358   1.408   1.332   1.014  1.4742 -2.0945  0.2500
  116SOL     OW  359   2.256   1.201   0.783 -0.0379 -0.2184 -0.2533
  116SOL    HW1  360   2.222   1.229   0.868 -0.2993 -1.8219  0.2154
  116SOL    HW2  361   2.183   1.152   0.744  0.5223 -0.6121 -0.8100
  117SOL     OW  362   1.535   0.030   1.345  0.2232 -0.8575 -0.7968
  117SOL    HW1  363   1.501  -0.040   1.290 -1.1007  1.0230 -2.5439
  117SOL    HW2  364   1.597   0.076   1.288  0.7928 -0.3820  0.1820
  118SOL     OW  365   3.427   2.091   0.865  0.2508  0.2446 -0.5130
  118SOL    HW1  366   3.348   2.052   0.827 -0.1551  0.7852 -0.2320
  118SOL    HW2  367   3.478   2.016   0.895 -0.9151 -0.0747  0.8122
  119SOL     OW  368   1.558   1.377   1.811  0.1144  0.0412 -0.4009
  119SOL    HW1  369   1.586   1.460   1.772  1.0803  0.2024  0.5844
  119SOL    HW2  370   1.493   1.403   1.877 -0.7005 -0.1368 -1.1104
  120SOL     OW  371   1.174   2.226   1.221  0.4571  0.3404 -0.1596
  120SOL    HW1  372   1.139   2.243   1.308  2.1435 -1.8790  1.0322
  120SOL    HW2  373   1.242   2.293   1.209  0.1383  0.7282  0.1599
  121SOL     OW  374   2.881   1.904   0.956 -0.3345  0.5562 -0.1535
  121SOL    HW1  375   2.903   1.893   0.864  0.0773  0.3992 -0.0386
  121SOL    HW2  376   2.786   1.897   0.960 -0.3095  0.0372 -0.4919
  122SOL     OW  377   1.709   1.662   1.826  0.0820 -0.6612 -0.3953
  122SOL    HW1  378   1.786   1.639   1.774  1.4995  1.3807  0.6606
  122SOL    HW2  379   1.636   1.654   1.764  1.6483  1.3082 -2.7202
  123SOL     OW  380   1.847   0.668   1.777  0.1448  0.1052 -0.0104
  123SOL    HW1  381   1.810   0.715   1.852 -0.2782 -1.7075  1.0076
  123SOL    HW2  382   1.816   0.716   1.700 -1.2132  0.8042  0.9343
  124SOL     OW  383   3.474   1.756   1.110  0.4804  0.2445 -0.5704
  124SOL    HW1  384   3.392   1.806   1.104  1.2312  1.7631  0.9388
  124SOL    HW2  385   3.523   1.781   1.031  1.1166  2.5450  0.4604
  125SOL     OW  386   2.857   1.272   1.729 -0.2428 -0.0122  0.2112
  125SOL    HW1  387   2.913   1.270   1.808  0.8708  0.1888 -0.5471
  125SOL    HW2  388   2.837   1.180   1.712 -0.4210 -0.0636  0.6880
  126SOL     OW  389   1.833   0.362   0.104  0.3888  0.0257  0.0569
  126SOL    HW1  390   1.909   0.411   0.134  0.7494 -1.6052  2.0602
  126SOL    HW2  391   1.868   0.275   0.082 -0.7358 -0.4162 -0.0438
  127SOL     OW  392   3.167   2.062   1.683  0.6223  0.3097 -0.4922
  127SOL    HW1  393   3.102   2.022   1.625  2.5164 -0.7900 -1.9849
  127SOL    HW2  394   3.155   2.156   1.672 -0.8598  0.1366 -0.5303
  128SOL     OW  395   3.296   0.831   1.387  0.1054  0.2417  0.4108
  128SOL    HW1  396   3.242   0.909   1.399  0.8742  0.4935  2.5953
  128SOL    HW2  397   3.238   0.759   1.412 -0.0036  0.2758  0.2610
  129SOL     OW  398   2.981   0.738   1.859 -0.4412 -0.2802 -0.4278
  129SOL    HW1  399   2.987   0.748   1.954  0.4480 -0.9804 -0.3893
  129SOL    HW2  400   3.057   0.684   1.836  0.6889  1.7724 -1.8393
  130SOL     OW  401   1.711   1.881   1.175  0.3063  0.4115  0.0198
  130SOL    HW1  402   1.616   1.866   1.179  0.1717  1.2837  0.5030
  130SOL    HW2  403   1.720   1.959   1.120  0.6795  0.8033  0.6218
  131SOL     OW  404   0.904   2.508   0.185 -0.1360 -0.0204  0.1198
  131SOL    HW1  405   0.956   2.573   0.233  0.3278 -1.4038  1.5726
  131SOL    HW2  406   0.887   2.549   0.100  1.6598  1.2625  0.3285
  132SOL     OW  407   3.422   1.070   1.549 -0.6556 -0.3037  0.6806
  132SOL    HW1  408   3.485   1.126   1.504  0.3378 -3.1372 -1.7664
  132SOL    HW2  409   3.474   1.024   1.615 -0.0752 -2.3486 -1.0762
  133SOL     OW  410   2.461   1.755   1.701  0.0628 -0.0279  0.0073
  133SOL    HW1  411   2.372   1.788   1.686 -0.5181 -0.7122  1.6936
  133SOL    HW2  412   2.482   1.704   1.623 -0.6151  0.9612 -0.8509
  134SOL     OW  413   0.984   0.488   0.160  0.5060 -0.7772  0.0481
  134SOL    HW1  414   0.901   0.466   0.118  1.1824 -2.4750 -0.4495
  134SOL    HW2  415   0.958   0.530   0.242 -0.8487 -1.2286 -0.1237
  135SOL     OW  416   3.845   2.250   1.932 -0.0199 -0.2565 -0.2778
  135SOL    HW1  417   3.870   2.162   1.959  0.5803 -0.3669 -1.1570
  135SOL    HW2  418   3.763   2.239   1.885 -1.3681  0.0025  1.8862
  136SOL     OW  419   2.887   0.609   0.625  0.6931 -0.3055 -0.0992
  136SOL    HW1  420   2.794   0.601   0.649  0.7012  0.0197  0.0511
  136SOL    HW2  421   2.891   0.687   0.570  0.6202 -1.2576 -1.4985
  137SOL     OW  422   1.120   1.044   1.569  0.4725  0.6529 -0.1123
  137SOL    HW1  423   1.102   1.051   1.663 -0.6698  1.4535 -0.3735
  137SOL    HW2  424   1.212   1.070   1.561  1.4608 -2.0574  1.0783
  138SOL     OW  425   1.973   2.651   0.282  0.1998 -0.6023  0.0292
  138SOL    HW1  426   2.018   2.582   0.332 -0.0993  0.5784  2.0138
  138SOL    HW2  427   2.017   2.732   0.307 -0.4554  0.1381 -1.1040
  139SOL     OW  428   2.797   2.016   0.699  0.3312  0.6284 -0.1339
  139SOL    HW1  429   2.747   2.007   0.781  0.9483  2.4606  0.4950
  139SOL    HW2  430   2.730   2.023   0.631 -0.2054 -0.0048  0.3166
  140SOL     OW  431   2.117   2.706   1.601  0.1173 -0.8945  0.5381
  140SOL    HW1  432   2.032   2.666   1.582 -0.8787 -0.4773  3.6160
  140SOL    HW2  433   2.097   2.776   1.663  2.2920  1.8749 -1.6167
  141SOL     OW  434   3.956   0.436   1.687 -0.5904  0.2476 -0.4883
  141SOL    HW1  435   4.007   0.398   1.616 -0.3234 -1.3754  0.5158
  141SOL    HW2  436   3.865   0.414   1.666 -0.3574 -2.3414  0.7574
  142SOL     OW  437   2.428   1.553   0.261  0.5602  0.3229 -0.3698
  142SOL    HW1  438   2.382   1.494   0.201  1.3077  0.2126 -0.8449
  142SOL    HW2  439   2.425   1.638   0.217 -0.0193  0.5216  0.0476
  143SOL     OW  440   2.575   0.473   1.665 -0.4916  0.0784  0.6364
  143SOL    HW1  441   2.554   0.476   1.572  0.8938 -0.8843  0.2613
  143SOL    HW2  442   2.589   0.564   1.690  0.6198  0.2311 -0.4703
  144SOL     OW  443   1.794   1.525   0.810  1.0074 -0.4279 -0.1348
  144SOL    HW1  444   1.844   1.453   0.847  0.1276 -1.6381 -1.2416
  144SOL    HW2  445   1.702   1.502   0.824  0.6001  2.1298  2.5976
  145SOL     OW  446   1.791   1.622   1.204 -0.3111 -0.3774 -0.5898
  145SOL    HW1  447   1.795   1.713   1.173  1.9998 -0.4361 -0.6187
  145SOL    HW2  448   1.841   1.623   1.285  0.7800 -1.8547 -1.2169
  146SOL     OW  449   3.229   2.557   1.714 -0.3266 -0.1551 -0.8900
  146SOL    HW1  450   3.176   2.633   1.741  0.7272  0.7912 -1.4065
  146SOL    HW2  451   3.275   2.531   1.793 -0.7641 -0.3268 -0.6875
  147SOL     OW  452   2.969   2.691   0.546  0.1420 -0.2401 -0.0591
  147SOL    HW1  453   3.024   2.698   0.624  0.2730 -0.6497 -0.1125
  147SOL    HW2  454   2.947   2.782   0.523  0.9270 -0.0681 -0.1331
  148SOL     OW  455   1.328   0.808   0.001 -0.5221  0.3441 -0.6345
  148SOL    HW1  456   1.357   0.899   0.010 -1.1856  0.7371 -2.1240
  148SOL    HW2  457   1.407   0.756   0.009 -0.2070  1.0091  0.7886
  149SOL     OW  458   0.996   0.436   0.645  0.5248 -0.0273  0.1415
  149SOL    HW1  459   1.033   0.471   0.726  1.7232  0.9008 -0.7686
  149SOL    HW2  460   0.947   0.358   0.673 -0.4197  1.1503  1.9470
  150SOL     OW  461   1.076   1.897   0.899 -0.2882 -0.1760 -0.5127
  150SOL    HW1  462   1.137   1.831   0.933  0.2016  0.2623 -0.5279
  150SOL    HW2  463   1.122   1.980   0.912 -0.8625  0.1512 -0.5831
  151SOL     OW  464   2.063   2.378   1.162  0.7120 -0.7262  0.1837
  151SOL    HW1  465   2.137   2.426   1.125  0.1571  0.9784  1.1597
  151SOL    HW2  466   2.097   2.337   1.241  0.3869  1.1193  1.3483
  152SOL     OW  467   1.906   0.577   1.473  0.2497  0.2226  0.0794
  152SOL    HW1  468   1.968   0.532   1.415  0.3921  2.3071 -1.5033
  152SOL    HW2  469   1.926   0.545   1.560  3.1142  0.2994 -0.4797
  153SOL     OW  470   1.258   1.455   1.310 -0.4571 -0.2132 -0.1739
  153SOL    HW1  471   1.189   1.507   1.352 -0.9565 -0.9639 -0.0334
  153SOL    HW2  472   1.210   1.395   1.252  0.1789  0.3378 -1.2931
  154SOL     OW  473   2.582   1.846   0.326 -0.1032  0.6589 -0.2129
  154SOL    HW1  474   2.492   1.852   0.293 -0.3443  2.7309  0.6426
  154SOL    HW2  475   2.590   1.757   0.360 -0.9922 -0.3822 -2.5171
  155SOL     OW  476   2.899   2.535   1.524  0.5053  0.4743  0.0378
  155SOL    HW1  477   2.839   2.474   1.481  0.9656  0.5074 -0.6799
  155SOL    HW2  478   2.881   2.526   1.617 -0.1104 -0.0391 -0.1275
  156SOL     OW  479   1.847   2.797   0.100 -0.3596 -0.5989 -0.8226
  156SOL    HW1  480   1.914   2.863   0.083 -0.0146 -0.9726 -0.9416
  156SOL    HW2  481   1.887   2.739   0.166  0.2554 -1.9952 -2.3472
  157SOL     OW  482   2.186   0.891   0.913 -0.3500 -0.2396  0.4577
  157SOL    HW1  483   2.173   0.818   0.973  0.8912 -1.2345 -0.4142
  157SOL    HW2  484   2.278   0.915   0.925 -0.3940  0.3002 -0.2299
  158SOL     OW  485   1.060   1.038   1.115 -0.0690 -0.1209 -0.4967
  158SOL    HW1  486   0.983   0.996   1.076 -1.3184  0.3009  1.3970
  158SOL    HW2  487   1.067   0.999   1.202  2.4792 -0.8472 -0.9290
  159SOL     OW  488   2.450   0.938   1.830  0.1054 -0.1636  0.2294
  159SOL    HW1  489   2.496   0.904   1.753  1.7672 -0.8787  1.4886
  159SOL    HW2  490   2.508   1.006   1.865 -1.3428  1.2370  0.0239
  160SOL     OW  491   1.724   2.584   0.412 -0.1734  0.5780 -0.4870
  160SOL    HW1  492   1.726   2.492   0.439  0.1703  1.2326  1.9728
  160SOL    HW2  493   1.815   2.604   0.389 -0.2880  0.2676 -1.2418
  161SOL     OW  494   0.832   1.487   0.022  0.0634  0.4598  0.0480
  161SOL    HW1  495   0.761   1.423   0.020 -0.9154  1.5011  0.5782
  161SOL    HW2  496   0.805   1.552   0.087  0.0628  2.5001 -1.8726
  162SOL     OW  497   0.995   2.412   1.093  0.2423 -0.1114 -0.3691
  162SOL    HW1  498   0.935   2.340   1.075  0.2118  0.2688 -1.8389
  162SOL    HW2  499   1.082   2.373   1.090  0.2603  0.0033 -1.7442
  163SOL     OW  500   3.070   1.777   1.494  0.0069  0.2137  0.3197
  163SOL    HW1  501   2.977   1.788   1.515 -0.0840 -2.0448  1.3696
  163SOL    HW2  502   3.072   1.756   1.401 -0.4138  1.3024  0.0504
  164SOL     OW  503   2.158   1.779   0.740 -0.3751 -0.2160 -0.2452
  164SOL    HW1  504   2.107   1.735   0.672 -1.5776 -0.0452  0.5274
  164SOL    HW2  505   2.101   1.782   0.816  0.6966  0.2228  0.5750
  165SOL     OW  506   3.036   0.519   0.835 -0.2783  0.4824  0.4281
  165SOL    HW1  507   2.984   0.440   0.850  1.9783 -1.6017 -1.6657
  165SOL    HW2  508   2.988   0.569   0.770 -1.0156  0.0887  0.6657
  166SOL     OW  509   1.658   2.186   0.975  0.3716 -0.0614 -0.6997
  166SOL    HW1  510   1.649   2.105   0.923 -0.2497  0.2278 -1.0583
  166SOL    HW2  511   1.711   2.243   0.920  0.1075  0.0744 -0.8156
  167SOL     OW  512   2.131   1.398   1.689  0.5709 -0.1894  0.5160
  167SOL    HW1  513   2.086   1.378   1.607  0.2925  0.7184  0.4366
  167SOL    HW2  514   2.074   1.363   1.757 -1.2776  2.5406  0.5298
  168SOL     OW  515   3.368   2.247   1.057 -0.2030  0.3131  0.1791
  168SOL    HW1  516   3.376   2.183   0.987 -0.8127  1.9239 -1.4294
  168SOL    HW2  517   3.286   2.224   1.101 -0.8558  0.4704 -0.9194
  169SOL     OW  518   0.791   2.074   0.361  0.5164 -0.7027 -0.8836
  169SOL    HW1  519   0.877   2.060   0.321  1.4940  0.8191  0.5615
  169SOL    HW2  520   0.792   2.165   0.390 -1.1675 -0.9656  0.1675
  170SOL     OW  521   2.186   0.699   0.270 -0.0325 -0.2581  0.1984
  170SOL    HW1  522   2.242   0.776   0.272  0.0115 -0.2735 -0.3780
  170SOL    HW2  523   2.097   0.734   0.260 -0.1260 -0.2362  1.0552
  171SOL     OW  524   3.318   1.788   0.680 -0.3633  0.0117 -0.3727
  171SOL    HW1  525   3.259   1.863   0.680 -0.0675  0.2683  0.9904
  171SOL    HW2  526   3.359   1.789   0.766  1.0472 -0.6284 -1.0014
  172SOL     OW  527   0.412   0.010   0.022 -0.5844  0.1966  0.1840
  172SOL    HW1  528   0.335   0.015   0.079 -0.6401  0.0279  0.1258
  172SOL    HW2  529   0.432   0.101   0.001 -1.6899  0.1833 -1.0413
  173SOL     OW  530   2.194   2.712   1.320  0.2487  0.1107 -0.0727
  173SOL    HW1  531   2.191   2.684   1.411  0.3309 -1.5736 -0.5511
  173SOL    HW2  532   2.232   2.638   1.273 -1.0311  0.3826 -1.6674
  174SOL     OW  533   2.436   1.060   1.254 -0.0649  0.3685 -0.3551
  174SOL    HW1  534   2.479   1.143   1.275 -2.2532  1.9288 -1.5206
  174SOL    HW2  535   2.355   1.061   1.305 -0.8309 -0.3127 -1.4892
  175SOL     OW  536   3.994   1.401   1.688  0.0726 -0.4075  0.1224
  175SOL    HW1  537   4.055   1.328   1.703  1.6822  0.8684  0.0370
  175SOL    HW2  538   3.971   1.431   1.776  2.0707  1.0685  0.2066
  176SOL     OW  539   4.057   2.422   1.831  0.1202 -0.2015  0.0249
  176SOL    HW1  540   3.968   2.444   1.804  0.3276 -0.6823 -1.0992
  176SOL    HW2  541   4.048   2.335   1.872 -0.2707  0.7335  2.0255
  177SOL     OW  542   3.979   0.324   1.963  0.2442 -0.7481  0.3883
  177SOL    HW1  543   4.008   0.263   1.895 -0.7670 -2.0196  1.0434
  177SOL    HW2  544   3.884   0.313   1.966  0.0154  0.9792  0.4455
  178SOL     OW  545   2.150   0.345   1.621  0.1679 -0.7462  0.0215
  178SOL    HW1  546   2.115   0.301   1.543 -0.7376  3.7627 -2.4926
  178SOL    HW2  547   2.074   0.357   1.678 -0.2587  0.0358 -0.6786
  179SOL     OW  548   2.142   2.538   0.814  0.0880  0.2335  0.0823
  179SOL    HW1  549   2.178   2.543   0.903  0.6170  0.5373 -0.1462
  179SOL    HW2  550   2.210   2.575   0.758  0.2416 -0.9751 -0.5838
  180SOL     OW  551   3.821   2.441   1.655  0.6890  0.1306 -0.2091
  180SOL    HW1  552   3.772   2.361   1.674  1.2321  0.1158  1.3036
  180SOL    HW2  553   3.765   2.511   1.689  1.3213  0.1683  0.8284
  181SOL     OW  554   1.760   1.354   0.557 -0.3115  0.4796  0.3214
  181SOL    HW1  555   1.714   1.424   0.602 -0.9951 -0.5010  1.1798
  181SOL    HW2  556   1.826   1.399   0.504 -1.1678  1.7989  0.3436
  182SOL     OW  557   2.108   0.834   0.569 -0.2570 -0.5588  0.0579
  182SOL    HW1  558   2.120   0.748   0.607 -0.4285 -1.3995 -1.6940
  182SOL    HW2  559   2.013   0.842   0.557 -0.2643 -0.0140  0.4460
  183SOL     OW  560   0.530   2.279   0.499 -0.0845  0.1374  0.0702
  183SOL    HW1  561   0.585   2.258   0.575  0.2675  1.2092  0.1344
  183SOL    HW2  562   0.560   2.366   0.472 -1.6622  0.6832  0.0039
  184SOL     OW  563   3.227   1.901   0.953 -0.7972 -0.5998  0.1697
  184SOL    HW1  564   3.237   1.961   1.027 -2.1523 -0.6515  0.4095
  184SOL    HW2  565   3.153   1.935   0.903 -0.6806 -1.2684 -0.4877
  185SOL     OW  566   3.100   1.011   1.353 -0.5045  0.0157  0.8163
  185SOL    HW1  567   3.009   1.037   1.339 -0.2910  0.5962  0.4697
  185SOL    HW2  568   3.148   1.093   1.356  0.1728 -0.3219 -0.2003
  186SOL     OW  569   1.293   0.491   1.174  0.2947 -0.3936 -0.0478
  186SOL    HW1  570   1.340   0.452   1.248  0.0068 -2.6664 -0.9934
  186SOL    HW2  571   1.209   0.518   1.210  0.8118  0.1136  0.8100
  187SOL     OW  572   1.497   0.449   0.891 -0.4057 -0.1661  0.3764
  187SOL    HW1  573   1.441   0.378   0.923  0.4525 -0.9421  0.2027
  187SOL    HW2  574   1.534   0.488   0.970 -0.7005 -0.0493  0.4607
  188SOL     OW  575   3.432   1.134   1.144 -0.0913 -0.1767  0.1822
  188SOL    HW1  576   3.449   1.040   1.138 -0.9096 -0.3255  0.1689
  188SOL    HW2  577   3.428   1.152   1.238 -1.4020 -0.4363  0.1954
  189SOL     OW  578   2.186   1.108   1.679 -0.1039 -0.4014 -0.7217
  189SOL    HW1  579   2.199   1.164   1.755 -2.0841  0.1419 -0.7513
  189SOL    HW2  580   2.190   1.019   1.715  1.2494 -0.2402 -0.3924
  190SOL     OW  581   2.178   1.073   0.447 -0.3930 -0.4807  0.4741
  190SOL    HW1  582   2.116   1.000   0.446 -0.2039 -0.6394  0.2071
  190SOL    HW2  583   2.124   1.151   0.463 -0.8979 -0.3974 -1.4080
  191SOL     OW  584   3.375   0.156   0.801 -0.6823 -0.2372  0.4249
  191SOL    HW1  585   3.354   0.250   0.804 -1.2974 -0.3859  0.9283
  191SOL    HW2  586   3.389   0.132   0.892  0.0844 -0.5081  0.2412
  192SOL     OW  587   3.040   2.742   1.841  0.2749  0.7690 -0.3760
  192SOL    HW1  588   3.117   2.763   1.893 -0.2696  0.9477  0.3678
  192SOL    HW2  589   2.972   2.802   1.872  0.4599  2.3152 -2.6772
  193SOL     OW  590   2.027   0.883   1.430 -0.0408  0.3113  0.2961
  193SOL    HW1  591   1.952   0.823   1.425  1.6752 -1.9304 -0.6859
  193SOL    HW2  592   2.087   0.840   1.491  0.6327  1.8615  0.7643
  194SOL     OW  593   2.601   1.118   1.972 -0.4414 -0.4726  0.4024
  194SOL    HW1  594   2.607   1.212   1.954 -1.7356 -0.0183  2.0537
  194SOL    HW2  595   2.647   1.106   2.054  0.3420 -1.4365 -0.1579
  195SOL     OW  596   1.200   1.258   0.043 -0.0705 -0.0983  0.2455
  195SOL    HW1  597   1.126   1.299  -0.002 -0.7142 -0.0974  1.2554
  195SOL    HW2  598   1.172   1.168   0.058 -0.2735  0.1522  1.4638
  196SOL     OW  599   2.684   1.936   1.744 -0.4758  0.1466 -0.2019
  196SOL    HW1  600   2.610   1.878   1.763 -2.7389  3.0417  0.5362
  196SOL    HW2  601   2.734   1.938   1.826 -1.4376  0.6324  0.3902
  197SOL     OW  602   1.807   0.278   0.926  0.0589 -0.1258 -0.2073
  197SOL    HW1  603   1.838   0.188   0.918 -1.2277 -0.5148 -1.1473
  197SOL    HW2  604   1.757   0.293   0.846  0.3794  1.4921 -0.1423
  198SOL     OW  605   2.928   1.628   0.403 -0.2662 -0.0227  0.2342
  198SOL    HW1  606   2.997   1.616   0.468  0.0073  0.0005 -0.0502
  198SOL    HW2  607   2.850   1.648   0.455 -0.2740 -0.9670  0.6017
  199SOL     OW  608   1.891   0.256   1.388 -0.0479  0.0321 -0.1821
  199SOL    HW1  609   1.938   0.201   1.325  0.6190 -0.9156  1.1073
  199SOL    HW2  610   1.832   0.196   1.433 -0.3113  0.6490  0.3074
  200SOL     OW  611   1.216   1.905   1.685 -0.4400  0.4992  0.4303
  200SOL    HW1  612   1.152   1.969   1.657 -0.8607  0.5907  1.5423
  200SOL    HW2  613   1.176   1.820   1.668 -0.4306  0.5459  0.1796
  201SOL     OW  614   1.047   1.512   0.220  0.1673 -0.1984 -0.4132
  201SOL    HW1  615   0.988   1.573   0.264  0.2381 -2.0350  2.5037
  201SOL    HW2  616   1.001   1.487   0.140 -0.2429  2.8722 -1.2600
  202SOL     OW  617   0.942   0.594   0.410 -0.1066  0.6336 -0.6053
  202SOL    HW1  618   0.989   0.540   0.474  0.0761  0.1857 -1.1022
  202SOL    HW2  619   0.877   0.641   0.461 -0.5200 -0.3506 -0.2016
  203SOL     OW  620   2.803   1.529   0.174 -0.4527 -0.1625 -0.3729
  203SOL    HW1  621   2.778   1.619   0.152  0.9820  0.3269 -0.1415
  203SOL    HW2  622   2.864   1.539   0.248 -0.4589 -1.3417 -0.1925
  204SOL     OW  623   3.139   0.002   0.733 -0.6735  0.2905  0.0787
  204SOL    HW1  624   3.101   0.001   0.821  0.0472 -1.6646  0.4112
  204SOL    HW2  625   3.213   0.063   0.740 -1.0073  0.6446  0.6468
  205SOL     OW  626   1.145   0.316   0.332  0.4676 -0.2858 -0.0232
  205SOL    HW1  627   1.180   0.263   0.260  2.7159  1.6194 -0.4727
  205SOL    HW2  628   1.078   0.371   0.291  0.0217 -0.8942 -0.1214
  206SOL     OW  629   2.313   2.169   0.975 -0.1658  0.4057  0.2423
  206SOL    HW1  630   2.335   2.195   0.886  0.6824  0.2218  0.3923
  206SOL    HW2  631   2.322   2.248   1.027 -0.0189  0.3652  0.2779
  207SOL     OW  632   3.938   1.657   1.638 -0.1525  0.3269 -0.4879
  207SOL    HW1  633   3.923   1.664   1.543  0.6686  0.9497 -0.5855
  207SOL    HW2  634   3.943   1.563   1.654  1.4127  0.2214 -1.3698
  208SOL     OW  635   1.594   1.639   0.202 -0.4441 -0.4338 -0.2470
  208SOL    HW1  636   1.599   1.636   0.107 -0.8657 -0.5353 -0.2690
  208SOL    HW2  637   1.520   1.582   0.224 -0.3536 -0.4088  0.1405
  209SOL     OW  638   1.452   1.937   1.241 -0.6652 -0.0583  0.5244
  209SOL    HW1  639   1.421   1.956   1.329 -1.4233  0.4018  0.1688
  209SOL    HW2  640   1.454   1.841   1.236 -2.0188 -0.1099  0.5820
  210SOL     OW  641   3.125   0.304   1.665 -0.0173 -0.1942  0.5058
  210SOL    HW1  642   3.045   0.357   1.664 -0.3388 -0.6670 -0.7785
  210SOL    HW2  643   3.160   0.311   1.576  0.2108 -1.7095  0.4544
  211SOL     OW  644   3.628   1.669   1.517 -0.2088 -0.4466  0.4916
  211SOL    HW1  645   3.540   1.702   1.534 -0.4784 -1.0486  0.2607
  211SOL    HW2  646   3.628   1.647   1.423  0.1131 -0.6837  0.5457
  212SOL     OW  647   2.889   1.225   0.895 -0.2921 -0.5041  0.2693
  212SOL    HW1  648   2.936   1.301   0.860  0.8058 -0.7648  1.1368
  212SOL    HW2  649   2.901   1.158   0.828 -1.0145 -0.0243 -0.3644
  213SOL     OW  650   2.188   0.160   0.684  0.6567 -0.3378  0.2020
  213SOL    HW1  651   2.107   0.192   0.644  0.5840 -3.2876 -2.3912
  213SOL    HW2  652   2.162   0.129   0.771 -0.6387  0.2988  0.0581
  214SOL     OW  653   2.883   1.620   1.100  0.3199  0.3515  0.1305
  214SOL    HW1  654   2.902   1.616   1.007  0.4315 -0.1484  0.1706
  214SOL    HW2  655   2.938   1.691   1.133  1.8394 -0.7688  0.1573
  215SOL     OW  656   0.596   2.549   0.091  0.0396 -0.1796  0.1608
  215SOL    HW1  657   0.618   2.457   0.105  0.1837 -0.0786  0.6223
  215SOL    HW2  658   0.627   2.593   0.170 -2.7730 -0.1919  1.4173
  216SOL     OW  659   3.955   1.579   1.952 -0.1945 -0.1890  0.4125
  216SOL    HW1  660   3.914   1.659   1.919 -0.5896 -1.2869 -1.9786
  216SOL    HW2  661   3.990   1.603   2.038 -0.5418  2.4469 -0.1096
  217SOL     OW  662   1.750   1.134   0.090  0.1174 -0.6918  0.3188
  217SOL    HW1  663   1.728   1.224   0.067  0.6720 -0.6127  0.0640
  217SOL    HW2  664   1.729   1.128   0.183  3.0525  0.7123  1.2064
  218SOL     OW  665   2.953   0.162   0.496 -0.2552  0.1504 -0.2237
  218SOL    HW1  666   3.011   0.200   0.562  0.6004 -0.7531 -0.4295
  218SOL    HW2  667   2.899   0.235   0.466  1.3771  1.2383 -0.6524
  219SOL     OW  668   1.403   1.644   1.728  0.8727 -0.3545  0.9478
  219SOL    HW1  669   1.381   1.711   1.793 -0.6326  3.1443 -2.7546
  219SOL    HW2  670   1.319   1.602   1.708  0.8107  0.3924 -0.4481
  220SOL     OW  671   0.863   1.582   0.683  0.5037  0.5432 -0.2398
  220SOL    HW1  672   0.940   1.625   0.645  0.6972  0.1367 -0.3134
  220SOL    HW2  673   0.843   1.510   0.623 -0.0092  0.7207 -0.2858
  221SOL     OW  674   2.593   2.474   1.209  0.1036  0.2456  0.1560
  221SOL    HW1  675   2.635   2.533   1.146 -0.0066  2.3265  1.9155
  221SOL    HW2  676   2.646   2.395   1.206  0.6045  0.5821 -1.8877
  222SOL     OW  677   3.274   2.000   1.209 -0.1235 -0.0115 -0.0905
  222SOL    HW1  678   3.345   1.997   1.274  0.3554 -0.5728 -0.6266
  222SOL    HW2  679   3.198   2.029   1.258  0.9610  2.8738  0.0691
  223SOL     OW  680   2.193   0.842   1.825  0.1219  0.1316  0.1813
  223SOL    HW1  681   2.196   0.787   1.746  0.6762 -0.5287  0.6397
  223SOL    HW2  682   2.285   0.866   1.840 -0.1454  1.4095 -0.1506
  224SOL     OW  683   1.159   0.358   0.993  0.0199  0.8219 -0.7279
  224SOL    HW1  684   1.212   0.390   1.067 -3.5614  0.6714  2.1916
  224SOL    HW2  685   1.140   0.437   0.942  0.4184  1.4046 -0.0052
  225SOL     OW  686   3.071   1.349   1.898 -0.4608  0.3565 -0.5321
  225SOL    HW1  687   3.129   1.369   1.972 -1.3867 -0.4571  0.4492
  225SOL    HW2  688   3.126   1.299   1.837 -0.2080 -0.7702  0.5684
  226SOL     OW  689   1.943   0.389   1.776  0.1310  0.3619 -0.2750
  226SOL    HW1  690   1.958   0.483   1.786 -0.1561  0.4291 -0.4619
  226SOL    HW2  691   1.918   0.359   1.864 -0.3549  0.5683 -0.3428
  227SOL     OW  692   0.293   1.289   0.011 -0.3360 -0.9000  0.6980
  227SOL    HW1  693   0.232   1.332  -0.049  0.3453  0.0041  0.6356
  227SOL    HW2  694   0.251   1.294   0.096 -0.6557 -0.8848  0.5385
  228SOL     OW  695   2.050   0.088   1.186 -0.2934  0.3473  0.8570
  228SOL    HW1  696   2.123   0.123   1.134  0.3641 -0.9583  0.8480
  228SOL    HW2  697   2.086   0.009   1.226 -2.3911 -1.7408 -1.1120
  229SOL     OW  698   2.243   1.926   1.701  0.5221 -0.2582 -0.0805
  229SOL    HW1  699   2.197   1.876   1.769  1.5247 -2.1336 -0.7164
  229SOL    HW2  700   2.174   1.960   1.645 -0.1704 -2.0350 -0.3560
  230SOL     OW  701   3.089   0.606   1.515 -0.1743 -0.4384  0.5623
  230SOL    HW1  702   3.014   0.557   1.549 -1.4112  1.7955  1.2265
  230SOL    HW2  703   3.140   0.630   1.593 -0.1839  0.2663  0.3540
  231SOL     OW  704   1.528   1.467   0.707  0.4513  0.1195  0.2160
  231SOL    HW1  705   1.483   1.435   0.629  0.2856  1.0547 -0.0826
  231SOL    HW2  706   1.523   1.394   0.769 -2.7081  0.5995  0.7065
  232SOL     OW  707   1.245   0.264   1.425 -0.3715  0.1747  0.4460
  232SOL    HW1  708   1.316   0.255   1.488  0.2124  0.3372 -0.1805
  232SOL    HW2  709   1.238   0.178   1.383 -0.6194  0.1273  0.5808
  233SOL     OW  710   2.506   0.816   1.288 -0.1846  0.2799 -0.3351
  233SOL    HW1  711   2.595   0.808   1.252  0.5858  0.4851  1.4294
  233SOL    HW2  712   2.492   0.911   1.294  0.9461  0.3658  2.6535
  234SOL     OW  713   2.226   1.072   1.417 -0.4465  0.1727 -0.4526
  234SOL    HW1  714   2.216   1.086   1.511  0.2366  0.6375 -0.4426
  234SOL    HW2  715   2.159   1.007   1.395 -1.8615  1.4087  0.0129
  235SOL     OW  716   0.542   1.901   0.271 -0.5163  0.1814 -0.5493
  235SOL    HW1  717   0.579   1.850   0.343  0.4610  0.4814 -0.8206
  235SOL    HW2  718   0.595   1.981   0.269 -0.2007 -0.0380 -1.8947
  236SOL     OW  719   1.677   1.389   1.215 -0.3617  0.0941 -0.0147
  236SOL    HW1  720   1.726   1.470   1.201  0.2631 -0.4085 -0.8348
  236SOL    HW2  721   1.600   1.397   1.158  0.7610 -0.7503 -1.7415
  237SOL     OW  722   3.158   0.291   1.159  0.0807  0.5937 -0.1089
  237SOL    HW1  723   3.181   0.237   1.235 -2.6394 -2.9520 -1.4734
  237SOL    HW2  724   3.120   0.370   1.197 -1.5953 -1.2369  2.3628
  238SOL     OW  725   1.944   1.350   1.468  0.5602  0.1590 -0.3307
  238SOL    HW1  726   1.924   1.272   1.520 -0.2126  0.1900 -0.5776
  238SOL    HW2  727   1.965   1.316   1.381  1.8591  0.1070 -0.0115
  239SOL     OW  728   3.622   2.330   1.404  0.1095  0.1812 -0.2456
  239SOL    HW1  729   3.649   2.421   1.391  1.9410 -0.2723  0.0579
  239SOL    HW2  730   3.562   2.333   1.479  2.2454  0.8821  1.5450
  240SOL     OW  731   0.661   1.759   0.467  0.1375  0.0990 -0.3241
  240SOL    HW1  732   0.614   1.736   0.547  0.6207 -0.2030 -0.1255
  240SOL    HW2  733   0.737   1.809   0.497  1.7048 -2.1194 -0.3599
  241SOL     OW  734   1.958   1.990   0.594 -0.7465 -0.0099  0.3330
  241SOL    HW1  735   1.969   1.895   0.597 -2.5862 -0.3696 -2.0727
  241SOL    HW2  736   1.884   2.007   0.652 -0.1329  0.0602  1.1230
  242SOL     OW  737   3.805   0.932   1.360 -0.5376 -0.4154 -0.0925
  242SOL    HW1  738   3.840   0.985   1.431 -0.6918  0.5538 -0.7290
  242SOL    HW2  739   3.710   0.932   1.375 -0.7298  1.0391 -1.1105
  243SOL     OW  740   1.685   2.011   0.757  0.2344 -0.4690 -0.0650
  243SOL    HW1  741   1.639   1.927   0.757 -1.3821  0.3488  1.3216
  243SOL    HW2  742   1.654   2.056   0.678  2.1064 -1.6114 -1.5416
  244SOL     OW  743   2.698   0.727   0.901  0.0847  0.2546  0.2279
  244SOL    HW1  744   2.710   0.636   0.929 -2.1529  0.5723  2.6810
  244SOL    HW2  745   2.655   0.721   0.816  1.6499 -0.9172 -0.5222
  245SOL     OW  746   1.396   0.755   1.115  0.3160 -0.0666  0.4468
  245SOL    HW1  747   1.416   0.663   1.130  0.9483 -0.2447 -1.2251
  245SOL    HW2  748   1.300   0.757   1.105  0.3640 -0.6919 -0.2886
  246SOL     OW  749   1.666   1.183   1.938  0.2060 -0.2545  0.1152
  246SOL    HW1  750   1.637   1.262   1.892 -0.0918 -0.1891  0.4138
  246SOL    HW2  751   1.761   1.190   1.940  0.1259  0.7605  1.3285
  247SOL     OW  752   3.639   0.994   1.722  0.2321 -0.3769  0.3283
  247SOL    HW1  753   3.707   1.038   1.772  2.1262 -1.4047 -1.2240
  247SOL    HW2  754   3.681   0.916   1.686 -1.3293 -0.3001 -1.8927
  248SOL     OW  755   2.846   2.716   0.278  0.1427  0.1538 -0.0599
  248SOL    HW1  756   2.899   2.638   0.262  0.5072  0.5962 -1.1589
  248SOL    HW2  757   2.767   2.684   0.322 -0.0947 -0.9551 -1.2321
  249SOL     OW  758   0.724   1.326   0.964  0.0246  0.1655 -0.1268
  249SOL    HW1  759   0.746   1.266   0.893 -0.7040  1.0873 -1.1423
  249SOL    HW2  760   0.676   1.272   1.027  0.9435 -0.7280 -0.1655
  250SOL     OW  761   1.870   1.122   1.600  0.2668  0.0351  0.2422
  250SOL    HW1  762   1.915   1.038   1.593 -0.0247 -0.1367  0.4204
  250SOL    HW2  763   1.902   1.159   1.682  0.8584  0.3741 -0.1386
  251SOL     OW  764   2.290   1.710   1.105  0.2241  0.7178 -0.0784
  251SOL    HW1  765   2.233   1.643   1.141  1.7111  0.1724  1.3851
  251SOL    HW2  766   2.339   1.666   1.037  1.0130  0.3563  0.7049
  252SOL     OW  767   0.797   2.006   0.629  0.3583  0.2483  0.2249
  252SOL    HW1  768   0.891   2.007   0.646  0.1622  0.0918  1.3847
  252SOL    HW2  769   0.790   2.014   0.534  1.4612  3.4613  0.2922
  253SOL     OW  770   2.404   1.373   1.595  0.0527 -0.1941  0.3253
  253SOL    HW1  771   2.438   1.300   1.647 -0.8619  0.1462  1.4380
  253SOL    HW2  772   2.312   1.379   1.619  0.2313  1.6825  0.7019
  254SOL     OW  773   0.787   1.218   0.239  0.0401  0.7091  0.1807
  254SOL    HW1  774   0.765   1.273   0.164  0.3912 -0.0605 -0.4966
  254SOL    HW2  775   0.790   1.278   0.313 -0.9240  1.3788 -0.3138
  255SOL     OW  776   1.797   0.639   0.080  0.4066 -0.2459  0.1850
  255SOL    HW1  777   1.765   0.691   0.154 -1.0734 -0.2928 -0.3938
  255SOL    HW2  778   1.814   0.552   0.118 -0.7065 -0.3796  0.4054
  256SOL     OW  779   0.485   1.369   0.442  0.3271 -0.2290  0.1030
  256SOL    HW1  780   0.466   1.275   0.439 -0.9740 -0.0600  1.6092
  256SOL    HW2  781   0.473   1.399   0.352 -2.1772 -1.0211  0.0985
  257SOL     OW  782   1.489   1.010   1.085  0.6156  0.8367 -0.3009
  257SOL    HW1  783   1.440   0.928   1.095  0.8345  0.8634  1.1155
  257SOL    HW2  784   1.527   1.027   1.171  2.8235  1.0268 -1.2457
  258SOL     OW  785   1.865   0.051   0.633 -0.4009  0.2276 -0.2642
  258SOL    HW1  786   1.776   0.014   0.630 -1.0206  1.6923 -1.1976
  258SOL    HW2  787   1.892   0.052   0.541  0.4050  0.2234 -0.0285
  259SOL     OW  788   2.046   2.366   0.120 -0.2588  0.6796  0.1053
  259SOL    HW1  789   1.952   2.359   0.137 -0.5172  2.2186 -0.5266
  259SOL    HW2  790   2.087   2.320   0.193 -1.4749  0.9358  0.9802
  260SOL     OW  791   3.027   1.443   0.771  0.5083 -0.4071 -0.2593
  260SOL    HW1  792   3.081   1.427   0.693 -0.0261  0.5940 -0.8590
  260SOL    HW2  793   3.005   1.536   0.766 -2.0404 -0.9516 -0.5678
  261SOL     OW  794   1.705   1.157   0.346 -0.2504 -0.3825  0.0782
  261SOL    HW1  795   1.610   1.164   0.333 -0.2117  0.1389  0.0459
  261SOL    HW2  796   1.722   1.208   0.425  0.4241  2.4056 -1.7352
  262SOL     OW  797   3.066   2.331   1.942 -0.0459  0.2059  0.1183
  262SOL    HW1  798   3.111   2.402   1.988 -0.8492 -0.4029  1.9441
  262SOL    HW2  799   3.004   2.376   1.884 -0.8781  1.0246  1.5942
  263SOL     OW  800   2.735   0.456   0.986 -0.0543  0.0113 -0.4719
  263SOL    HW1  801   2.750   0.490   1.074 -0.2720  0.0366 -0.4450
  263SOL    HW2  802   2.806   0.394   0.972  0.6525  0.8548 -0.7197
  264SOL     OW  803   2.922   2.102   0.153 -0.3109 -0.1204  0.1375
  264SOL    HW1  804   2.868   2.054   0.215  0.6814 -0.0444  1.0852
  264SOL    HW2  805   2.972   2.164   0.206  3.1767 -2.3675 -0.1711
  265SOL     OW  806   0.903   0.754   1.095  0.0998  0.0410  0.5457
  265SOL    HW1  807   0.959   0.701   1.151  0.8795  1.8200  1.5355
  265SOL    HW2  808   0.833   0.784   1.152 -1.6561 -1.7492 -0.5619
  266SOL     OW  809   0.628   2.716   0.694 -0.8677  0.5121  0.0411
  266SOL    HW1  810   0.555   2.710   0.632 -0.5556  0.5043 -0.3307
  266SOL    HW2  811   0.622   2.805   0.728 -1.7869  0.1314  0.9393
  267SOL     OW  812   0.942   1.248   0.710 -0.1278 -0.6234 -0.3791
  267SOL    HW1  813   0.870   1.190   0.733 -0.9645  0.8313  0.8678
  267SOL    HW2  814   0.928   1.270   0.618 -2.0201  0.6179  0.1718
  268SOL     OW  815   1.778   0.753   1.303 -0.2592  0.0357  0.4908
  268SOL    HW1  816   1.695   0.767   1.350 -0.6850  0.3071 -0.3232
  268SOL    HW2  817   1.820   0.681   1.350  0.0222  1.2410  2.1871
  269SOL     OW  818   2.220   0.660   1.609  0.4858 -0.0229  0.3972
  269SOL    HW1  819   2.204   0.573   1.644 -1.9813 -0.3612 -1.3248
  269SOL    HW2  820   2.271   0.646   1.530  0.6868  0.1715  0.4897
  270SOL     OW  821   2.190   0.648   1.090  0.2835 -0.0977 -0.2119
  270SOL    HW1  822   2.211   0.589   1.162  0.5260  0.1285 -0.0966
  270SOL    HW2  823   2.100   0.675   1.107  0.0675 -0.6584 -0.4245
  271SOL     OW  824   3.363   1.132   1.843  0.3819 -0.4546 -0.4480
  271SOL    HW1  825   3.411   1.049   1.844 -0.1332 -0.7569 -0.7001
  271SOL    HW2  826   3.298   1.121   1.774  0.1961  0.0934 -0.3611
  272SOL     OW  827   2.316   0.164   1.035 -0.1813  0.7902  0.4617
  272SOL    HW1  828   2.391   0.213   1.002  0.7621 -0.8182  0.0657
  272SOL    HW2  829   2.349   0.074   1.045 -1.8373  0.2033  1.0527
  273SOL     OW  830   2.824   1.161   1.348  0.1751 -0.4306  0.6962
  273SOL    HW1  831   2.810   1.250   1.383  1.1911 -0.0792  0.2419
  273SOL    HW2  832   2.781   1.163   1.262  0.2608 -0.3567  0.6548
  274SOL     OW  833   1.852   2.587   1.542  0.1772  0.2934 -0.6339
  274SOL    HW1  834   1.774   2.549   1.582  0.6111  0.5973  0.5657
  274SOL    HW2  835   1.824   2.675   1.516  0.4700  0.9687  1.1610
  275SOL     OW  836   1.107   2.488   0.510  0.8352 -0.3769 -0.4693
  275SOL    HW1  837   1.152   2.550   0.568  0.8280 -1.7593  1.1108
  275SOL    HW2  838   1.029   2.534   0.481  0.2213  0.0134  1.6031
  276SOL     OW  839   1.999   1.281   0.290  0.0801  0.5010  0.1827
  276SOL    HW1  840   2.010   1.375   0.276 -1.2432  0.6860  0.3369
  276SOL    HW2  841   1.990   1.244   0.202  0.7045  0.4852  0.1160
  277SOL     OW  842   3.078   2.573   1.112 -0.3604  0.6379 -0.2240
  277SOL    HW1  843   3.069   2.524   1.194  2.3931  0.4200  0.0234
  277SOL    HW2  844   3.071   2.507   1.044 -2.2948  0.7706 -0.2186
  278SOL     OW  845   2.076   0.459   1.302  0.5698 -0.2175  0.1707
  278SOL    HW1  846   2.164   0.423   1.291  0.4010 -0.2585 -1.2250
  278SOL    HW2  847   2.019   0.383   1.309  0.4286 -0.2303 -0.9367
  279SOL     OW  848   1.332   1.551   0.184 -0.4821  0.3217  0.3377
  279SOL    HW1  849   1.318   1.495   0.107 -1.7035  1.2552 -0.1592
  279SOL    HW2  850   1.256   1.535   0.239 -0.3827  0.8126  0.6215
  280SOL     OW  851   3.223   0.641   1.765 -0.1647  0.2259  0.1908
  280SOL    HW1  852   3.283   0.712   1.785  1.0833 -1.4191  2.7906
  280SOL    HW2  853   3.272   0.562   1.785 -2.4436 -1.2876  0.1145
  281SOL     OW  854   3.577   0.299   1.999 -0.1236  0.1634 -0.5289
  281SOL    HW1  855   3.579   0.287   1.904 -0.3837 -0.4258 -0.4649
  281SOL    HW2  856   3.511   0.237   2.029 -1.0007  1.2736 -0.0935
  282SOL     OW  857   1.101   1.002   0.148 -0.3394 -0.0465 -0.0997
  282SOL    HW1  858   1.096   0.910   0.175  0.0341 -0.6980 -2.0949
  282SOL    HW2  859   1.010   1.026   0.130 -0.4495  0.0119  0.5203
  283SOL     OW  860   1.577   0.246   0.484 -0.4841  0.1674  0.0937
  283SOL    HW1  861   1.574   0.165   0.432 -1.0617  0.0569  0.2877
  283SOL    HW2  862   1.604   0.313   0.422  0.6867 -0.2882  0.0825
  284SOL     OW  863   2.361   1.927   0.831 -0.1837  0.0938  0.2916
  284SOL    HW1  864   2.332   2.011   0.866  1.6130 -0.1598  2.6630
  284SOL    HW2  865   2.281   1.879   0.811 -1.2492  1.6479  0.7108
  285SOL     OW  866   2.133   0.015   0.373  0.0656 -0.1340  0.2326
  285SOL    HW1  867   2.196   0.087   0.370  1.4079 -1.2925 -0.6863
  285SOL    HW2  868   2.180  -0.057   0.415 -0.6731 -1.0085 -0.3853
  286SOL     OW  869   2.177   1.020   0.052 -0.1949  0.0039  0.5924
  286SOL    HW1  870   2.259   1.043   0.096 -0.5080 -1.8316  2.2881
  286SOL    HW2  871   2.116   1.004   0.124 -1.3741 -0.9901 -0.5896
  287SOL     OW  872   1.743   2.062   1.425 -0.1338  0.0732  0.4674
  287SOL    HW1  873   1.694   2.018   1.356  0.5465  1.1931 -0.7664
  287SOL    HW2  874   1.761   2.149   1.391 -0.2964  0.8780  2.3202
  288SOL     OW  875   2.115   2.485   0.452  0.1443  0.8006 -0.0910
  288SOL    HW1  876   2.108   2.397   0.488 -0.4274  0.8074 -0.1791
  288SOL    HW2  877   2.163   2.534   0.519  1.0188  0.2797 -0.3125
  289SOL     OW  878   1.141   2.714   0.694  0.2128 -0.2149  1.0189
  289SOL    HW1  879   1.072   2.709   0.628 -0.7427 -0.8406  2.0230
  289SOL    HW2  880   1.177   2.802   0.685  0.3790 -0.4204 -0.5863
  290SOL     OW  881   3.644   2.199   1.744 -0.0016  0.3792 -0.4020
  290SOL    HW1  882   3.564   2.182   1.794 -0.4105  0.8447 -0.8829
  290SOL    HW2  883   3.626   2.163   1.658  0.1408  0.8654 -0.6371
  291SOL     OW  884   2.315   1.881   0.474 -0.3682  0.1928  0.2103
  291SOL    HW1  885   2.237   1.936   0.485 -0.0793  0.7480 -0.4823
  291SOL    HW2  886   2.297   1.803   0.528 -0.1957  1.5489  2.3227
  292SOL     OW  887   1.054   0.592   0.889 -0.0582  0.9085 -0.0157
  292SOL    HW1  888   1.102   0.666   0.852 -0.7099  0.1874 -2.4396
  292SOL    HW2  889   0.991   0.633   0.948  0.0139  2.2586 -0.8295
  293SOL     OW  890   3.539   0.478   1.465  0.1492  0.3363  0.2487
  293SOL    HW1  891   3.605   0.440   1.407 -1.3781 -1.9404 -0.1191
  293SOL    HW2  892   3.559   0.441   1.551 -0.6873 -0.4904  0.1052
  294SOL     OW  893   2.857   2.719   1.298 -0.2344  0.1766  0.1520
  294SOL    HW1  894   2.934   2.775   1.290  0.1356 -0.5157 -2.0922
  294SOL    HW2  895   2.863   2.681   1.386  1.9207  0.2778  0.1010
  295SOL     OW  896   1.377   0.949   0.357  0.1482  0.0328  0.5285
  295SOL    HW1  897   1.402   0.863   0.389  1.9636 -0.1780 -1.3054
  295SOL    HW2  898   1.282   0.943   0.345  0.3284 -1.9474 -0.2335
  296SOL     OW  899   3.875   0.729   1.584  0.3042 -0.2005 -0.2711
  296SOL    HW1  900   3.926   0.804   1.554  0.2847  0.0381  0.2840
  296SOL    HW2  901   3.941   0.662   1.604  0.2689 -0.7127 -1.7654
  297SOL     OW  902   2.637   0.653   0.152  0.2402 -0.2375  0.1027
  297SOL    HW1  903   2.581   0.617   0.083 -1.6977  0.5486  1.2050
  297SOL    HW2  904   2.721   0.666   0.109  0.4600 -3.8877 -0.9776
  298SOL     OW  905   0.835   0.218   0.701 -0.6051  0.5923 -0.6608
  298SOL    HW1  906   0.750   0.174   0.693 -1.0725  0.5130  2.8079
  298SOL    HW2  907   0.883   0.166   0.766  0.8509  2.3317 -0.2535
  299SOL     OW  908   0.814   0.950   0.181  0.0717  0.4015  0.0571
  299SOL    HW1  909   0.794   1.042   0.196 -0.8126 -0.0559  1.9949
  299SOL    HW2  910   0.779   0.932   0.093 -0.1492  1.7909 -0.1605
  300SOL     OW  911   3.385   0.044   1.075  0.2984  0.5570  0.2909
  300SOL    HW1  912   3.426  -0.032   1.034  0.7046  1.0643 -0.2495
  300SOL    HW2  913   3.434   0.056   1.157 -0.3957 -0.3446  0.8534
  301SOL     OW  914   0.094   0.223   0.039 -0.1629  0.4242  0.6056
  301SOL    HW1  915   0.078   0.302  -0.012 -1.6777 -0.6532 -0.6816
  301SOL    HW2  916   0.016   0.212   0.093 -0.0994 -0.3511  0.5515
  302SOL     OW  917   1.836   0.528   0.489 -0.1423  0.2091  0.2677
  302SOL    HW1  918   1.761   0.485   0.448  0.1362 -0.4827  0.4730
  302SOL    HW2  919   1.798   0.596   0.544 -0.5141  1.3538 -1.3426
  303SOL     OW  920   0.972   0.322   1.397 -0.8702 -0.5253  0.3202
  303SOL    HW1  921   0.965   0.289   1.307 -0.7523  1.6425 -0.5569
  303SOL    HW2  922   1.064   0.310   1.419 -0.6768 -0.1368 -0.2492
  304SOL     OW  923   2.456   0.317   0.240  0.3432 -0.4672 -0.3940
  304SOL    HW1  924   2.421   0.294   0.326  3.2947  0.1799  1.0895
  304SOL    HW2  925   2.381   0.357   0.194 -1.1860 -0.3227  2.0536
  305SOL     OW  926   2.983   2.077   1.149 -0.3508 -0.4519  0.0825
  305SOL    HW1  927   2.932   2.018   1.094  3.7529 -2.9832 -1.3934
  305SOL    HW2  928   3.009   2.148   1.091 -0.8655  0.0434  0.4394
  306SOL     OW  929   2.512   1.607   1.419  0.1927  0.7977 -0.1160
  306SOL    HW1  930   2.523   1.523   1.464  2.0797  0.3503 -1.2883
  306SOL    HW2  931   2.533   1.588   1.328  0.1050  2.4243 -0.4950
  307SOL     OW  932   2.633   2.332   1.538 -0.2943 -0.0547 -0.2213
  307SOL    HW1  933   2.564   2.387   1.575  0.8293 -0.5705  2.9317
  307SOL    HW2  934   2.586   2.256   1.503 -1.4516  0.5174  0.0307
  308SOL     OW  935   2.747   2.049   0.339 -0.1661  0.1646 -0.4380
  308SOL    HW1  936   2.692   1.975   0.364  0.5519 -0.0716  0.5106
  308SOL    HW2  937   2.694   2.126   0.361 -0.9484 -0.0470 -1.5085
  309SOL     OW  938   2.261   0.522   0.442 -0.5799 -0.5802 -0.8473
  309SOL    HW1  939   2.230   0.555   0.526 -0.6147 -0.6653 -0.8277
  309SOL    HW2  940   2.233   0.589   0.379  0.5591  0.1202 -0.6285
  310SOL     OW  941   1.883   2.534   1.890 -0.0836  0.1332  0.0832
  310SOL    HW1  942   1.812   2.559   1.949 -0.4757 -0.2949 -0.2012
  310SOL    HW2  943   1.839   2.502   1.812  0.4331  1.4211 -0.7724
  311SOL     OW  944   2.324   1.227   1.918  0.5061 -0.4244  0.4543
  311SOL    HW1  945   2.418   1.231   1.931  0.8118 -1.6936 -0.9905
  311SOL    HW2  946   2.289   1.301   1.967  2.2813  0.2768  0.7253
  312SOL     OW  947   3.560   0.792   1.462  0.0986  0.1673 -0.1717
  312SOL    HW1  948   3.564   0.700   1.433 -0.6830  0.4937 -1.3949
  312SOL    HW2  949   3.476   0.823   1.428  0.4008  1.3758  0.1663
  313SOL     OW  950   1.939   1.822   0.285  0.2381  0.7302  0.1714
  313SOL    HW1  951   1.987   1.879   0.224 -1.6791  0.3728 -1.7948
  313SOL    HW2  952   1.862   1.873   0.309 -1.4440 -0.8413 -1.5101
  314SOL     OW  953   1.362   0.206   0.707 -0.3039 -0.5336 -0.3386
  314SOL    HW1  954   1.271   0.224   0.686 -0.5641 -1.6081 -0.2077
  314SOL    HW2  955   1.409   0.219   0.624 -0.7099 -0.8043 -0.6137
  315SOL     OW  956   1.569   0.543   1.816 -0.0979  0.0720 -0.9013
  315SOL    HW1  957   1.654   0.548   1.773 -0.3422 -0.5819 -1.4752
  315SOL    HW2  958   1.587   0.497   1.899  0.0976 -0.1019 -1.0401
  316SOL     OW  959   1.841   0.957   0.584 -0.1236  0.3509 -0.0227
  316SOL    HW1  960   1.768   1.015   0.563  1.5265  3.4144  1.9579
  316SOL    HW2  961   1.808   0.901   0.654 -0.4668  2.2744  1.4540
  317SOL     OW  962   1.920   2.139   0.322 -0.2718  0.2582 -0.0821
  317SOL    HW1  963   1.847   2.076   0.323  0.7826 -1.0119  0.1540
  317SOL    HW2  964   1.969   2.120   0.402  0.4448  0.9428 -0.3503
  318SOL     OW  965   2.548   0.260   1.007 -0.4338 -0.1166 -0.1970
  318SOL    HW1  966   2.599   0.341   1.006  0.7838 -0.8495  0.4620
  318SOL    HW2  967   2.581   0.212   1.083 -0.3061 -1.7312 -1.2305
  319SOL     OW  968   1.155   1.385   0.850 -0.2614  0.5170  0.1043
  319SOL    HW1  969   1.199   1.448   0.793  0.9782 -0.6515 -0.2583
  319SOL    HW2  970   1.079   1.356   0.799 -2.2301  3.3649  1.1651
  320SOL     OW  971   3.651   1.590   1.268  0.1875  0.4185 -0.5655
  320SOL    HW1  972   3.640   1.496   1.259 -0.8853  0.6455 -1.9763
  320SOL    HW2  973   3.598   1.627   1.197  2.1464  2.0189 -1.2652
  321SOL     OW  974   1.906   2.434   0.905 -0.2774  0.6768  0.2464
  321SOL    HW1  975   1.984   2.467   0.860 -0.3553 -0.6156 -0.9216
  321SOL    HW2  976   1.931   2.431   0.997  2.3865 -2.8763 -0.3780
  322SOL     OW  977   3.165   1.104   1.634  0.1095 -0.6418 -0.2211
  322SOL    HW1  978   3.235   1.057   1.589 -1.3106 -0.0633 -3.2960
  322SOL    HW2  979   3.102   1.124   1.565 -2.0496  0.7829  2.0188
  323SOL     OW  980   3.606   0.434   1.726  0.1441 -0.4398 -0.0059
  323SOL    HW1  981   3.513   0.416   1.740  0.2955  0.1543  2.1288
  323SOL    HW2  982   3.614   0.528   1.736  0.7521 -0.2435 -1.9516
  324SOL     OW  983   1.521   0.479   1.401 -0.5921  0.6062 -0.4482
  324SOL    HW1  984   1.497   0.465   1.493 -1.7128  4.4417  0.0271
  324SOL    HW2  985   1.584   0.410   1.382 -0.4005 -0.4330  3.1511
  325SOL     OW  986   3.568   0.161   1.524 -0.4996  0.0890  0.2458
  325SOL    HW1  987   3.552   0.067   1.531 -0.0185  0.0360  0.6807
  325SOL    HW2  988   3.648   0.168   1.472 -0.8288  0.2856 -0.2524
  326SOL     OW  989   2.599   0.623   0.665  0.2477 -0.3925 -0.0973
  326SOL    HW1  990   2.615   0.600   0.574 -0.3458 -0.9208 -0.0781
  326SOL    HW2  991   2.543   0.700   0.661  3.8948  2.5162 -0.1767
  327SOL     OW  992   2.894   0.448   1.699 -0.1860 -0.0815  0.1340
  327SOL    HW1  993   2.804   0.426   1.676 -0.1732 -0.0598  0.0651
  327SOL    HW2  994   2.886   0.504   1.776 -0.1489 -1.9811  1.6035
  328SOL     OW  995   1.468   0.070   0.953 -0.5874 -0.3250 -0.1074
  328SOL    HW1  996   1.559   0.101   0.954 -0.6031 -0.1889 -1.5813
  328SOL    HW2  997   1.433   0.099   0.869 -1.4223 -2.0059 -0.3899
  329SOL     OW  998   1.005   0.111   0.896  0.0580  0.0458  0.1349
  329SOL    HW1  999   1.058   0.186   0.926  0.2128  0.1189 -0.3153
  329SOL    HW2 1000   1.055   0.034   0.924  0.1425  0.1119  0.1680
  330SOL     OW 1001   1.371   1.140   1.411  0.0567 -0.3948 -0.0271
  330SOL    HW1 1002   1.454   1.150   1.458  0.3455 -0.4204 -0.5378
  330SOL    HW2 1003   1.340   1.230   1.398  0.2494 -0.3660 -0.2806
  331SOL     OW 1004   3.036   1.249   0.280  0.1300 -0.0170  0.5701
  331SOL    HW1 1005   3.012   1.318   0.343 -1.7072 -0.0741 -0.0253
  331SOL    HW2 1006   2.954   1.204   0.261  0.8856 -0.8388 -0.8912
  332SOL     OW 1007   3.197   0.053   1.606  0.0639  0.2837 -0.0722
  332SOL    HW1 1008   3.159   0.141   1.607  0.9923  0.7177 -0.9743
  332SOL    HW2 1009   3.211   0.032   1.699  0.4338  1.3596  0.1330
  333SOL     OW 1010   1.781   0.689   0.709  0.1449 -0.5656 -0.1795
  333SOL    HW1 1011   1.697   0.690   0.755  0.4679  0.0326  0.4118
  333SOL    HW2 1012   1.833   0.625   0.756  0.4280 -0.0559  0.2090
  334SOL     OW 1013   0.225   0.534   0.248 -0.4218  0.1798 -0.3089
  334SOL    HW1 1014   0.132   0.558   0.256 -1.1322 -2.0475 -0.9914
  334SOL    HW2 1015   0.250   0.565   0.161 -1.5235 -1.9356 -1.4697
  335SOL     OW 1016   0.382   0.624   0.463 -0.3299 -0.2684 -0.1571
  335SOL    HW1 1017   0.421   0.701   0.423 -2.5781  1.1578  0.2163
  335SOL    HW2 1018   0.308   0.602   0.406 -2.6524  0.8467  2.1827
  336SOL     OW 1019   3.869   0.963   1.869 -0.2639 -0.7647  0.2705
  336SOL    HW1 1020   3.877   0.869   1.883  0.5452 -0.4586  2.2107
  336SOL    HW2 1021   3.868   1.001   1.957 -2.9689  0.8998 -0.3498
  337SOL     OW 1022   0.820   2.201   1.079 -0.2638 -0.0582 -0.2960
  337SOL    HW1 1023   0.727   2.186   1.060 -0.6283 -0.4482  1.5528
  337SOL    HW2 1024   0.835   2.155   1.162  1.1883  1.2580  0.2252
  338SOL     OW 1025   2.192   1.189   1.070  0.0849 -0.8159  0.0275
  338SOL    HW1 1026   2.122   1.223   1.124 -0.9258 -0.1116 -1.6347
  338SOL    HW2 1027   2.173   1.095   1.062 -1.4519 -0.4167 -1.4449
  339SOL     OW 1028   1.900   1.623   0.091  0.1146 -0.1194  0.2838
  339SOL    HW1 1029   1.831   1.658   0.034  1.6336  1.9305 -0.4113
  339SOL    HW2 1030   1.900   1.681   0.167  0.9446 -0.2034  0.3548
  340SOL     OW 1031   2.536  -0.015   0.374  0.1407 -0.3815 -0.1767
  340SOL    HW1 1032   2.559   0.073   0.344  0.7074 -1.1233 -2.0580
  340SOL    HW2 1033   2.470  -0.045   0.312  0.6473 -1.6282 -0.1296
  341SOL     OW 1034   0.822   1.652   0.281  0.5347 -0.2324 -0.2015
  341SOL    HW1 1035   0.869   1.735   0.277  0.5450 -0.2334 -0.1004
  341SOL    HW2 1036   0.737   1.674   0.317 -0.2882  0.0958 -2.2087
  342SOL     OW 1037   1.265   1.679   0.976 -0.2150  0.1731  0.1038
  342SOL    HW1 1038   1.257   1.639   1.063 -1.3632  1.4837  0.6433
  342SOL    HW2 1039   1.249   1.607   0.915 -1.6864 -0.3298  1.0258
  343SOL     OW 1040   0.605   2.555   0.395 -0.5438 -0.5618 -0.3852
  343SOL    HW1 1041   0.586   2.647   0.375  2.4032  0.4037  0.6713
  343SOL    HW2 1042   0.660   2.559   0.473 -0.0192 -3.2393 -0.5344
  344SOL     OW 1043   0.070   0.688   0.052  0.3130 -0.0634 -0.4441
  344SOL    HW1 1044   0.070   0.780   0.081  0.0632 -0.5520  1.2553
  344SOL    HW2 1045   0.158   0.674   0.017  1.2234  0.1928  1.5814
  345SOL     OW 1046   1.694   1.670   0.442  0.4297  0.9840  0.0222
  345SOL    HW1 1047   1.667   1.653   0.352 -1.4453  0.1960  0.6831
  345SOL    HW2 1048   1.617   1.649   0.495  1.7357  0.6037  1.8998
  346SOL     OW 1049   2.749   1.468   1.571  0.0065 -0.2393 -0.0068
  346SOL    HW1 1050   2.811   1.468   1.498  0.6977 -1.0606  0.5678
  346SOL    HW2 1051   2.788   1.409   1.636 -0.2460  1.0132  1.3286
  347SOL     OW 1052   1.571   1.763   1.547 -0.0800 -0.5222  0.2658
  347SOL    HW1 1053   1.512   1.700   1.587  0.7767 -1.5556 -0.0272
  347SOL    HW2 1054   1.565   1.746   1.453 -1.2331  1.1213  0.0067
  348SOL     OW 1055   0.991   2.171   0.837  0.5843  0.3389 -0.1987
  348SOL    HW1 1056   0.984   2.263   0.813 -0.9134 -0.1670 -1.9333
  348SOL    HW2 1057   0.936   2.162   0.915 -1.1099  0.5402 -1.3168
  349SOL     OW 1058   1.648   2.260   1.244 -0.8598 -0.3570  0.3635
  349SOL    HW1 1059   1.653   2.214   1.161  3.3052 -2.4436  1.5078
  349SOL    HW2 1060   1.702   2.338   1.232 -0.6410 -0.4109  0.9519
  350SOL     OW 1061   1.921   1.022   1.210  0.5734  0.2274 -0.0755
  350SOL    HW1 1062   1.828   1.031   1.188  1.1173  0.6038 -2.4190
  350SOL    HW2 1063   1.921   0.969   1.289 -1.6078 -0.5810 -0.5422
  351SOL     OW 1064   2.716   2.730   0.029 -0.3829  0.3384 -0.5150
  351SOL    HW1 1065   2.641   2.787   0.041 -1.5085 -1.4959  1.8770
  351SOL    HW2 1066   2.749   2.713   0.117 -1.3227 -4.1366 -0.7803
  352SOL     OW 1067   0.585   2.801   0.215  0.3852 -0.6679 -0.9108
  352SOL    HW1 1068   0.508   2.818   0.269  1.0609  1.8373 -0.6162
  352SOL    HW2 1069   0.549   2.769   0.132 -0.8737 -0.8400 -0.3251
  353SOL     OW 1070   1.719   1.951   0.367 -0.0623 -0.4723  0.3676
  353SOL    HW1 1071   1.636   1.968   0.321 -1.5198 -1.5507  2.4309
  353SOL    HW2 1072   1.705   1.867   0.411  2.1229 -0.6261  0.8523
  354SOL     OW 1073   2.364   0.635   0.894 -0.4572  0.0566  0.6560
  354SOL    HW1 1074   2.352   0.543   0.871  0.1387  0.1998 -0.2866
  354SOL    HW2 1075   2.305   0.649   0.969 -0.0328 -1.2590  1.2681
  355SOL     OW 1076   3.521   2.746   1.935 -0.7776  0.4881  0.1432
  355SOL    HW1 1077   3.583   2.775   2.002  1.4081  1.3521 -2.0739
  355SOL    HW2 1078   3.557   2.662   1.905 -1.0856  0.6359 -0.6659
  356SOL     OW 1079   0.901   1.806   0.038  0.0641 -0.0419  0.3633
  356SOL    HW1 1080   0.928   1.770  -0.046  0.6406 -0.1093  0.5739
  356SOL    HW2 1081   0.806   1.797   0.039  0.0693 -0.1506 -0.2285
  357SOL     OW 1082   2.132   2.267   1.933 -0.1663  0.2803  0.4481
  357SOL    HW1 1083   2.071   2.268   1.859  1.8373  1.1582 -1.2728
  357SOL    HW2 1084   2.163   2.177   1.937  1.1955  0.6370 -1.1205
  358SOL     OW 1085   1.078   1.661   1.367  0.1370  0.6546 -0.1921
  358SOL    HW1 1086   0.999   1.642   1.317  1.1111 -0.7352 -1.3074
  358SOL    HW2 1087   1.100   1.751   1.345 -1.1863  1.0936  0.2320
  359SOL     OW 1088   1.617   2.468   1.660 -0.2695 -0.1095 -0.2074
  359SOL    HW1 1089   1.559   2.477   1.735 -0.6751 -0.3109 -0.4927
  359SOL    HW2 1090   1.573   2.404   1.603  0.3499 -0.4507 -0.3115
  360SOL     OW 1091   2.139   2.212   0.534  0.6973 -0.0412  0.0063
  360SOL    HW1 1092   2.081   2.148   0.576  0.5826 -0.1989 -0.3938
  360SOL    HW2 1093   2.149   2.181   0.444  1.6249 -0.1659  0.1414
  361SOL     OW 1094   2.113   1.523   1.188  0.0147  0.2013 -0.0673
  361SOL    HW1 1095   2.183   1.475   1.233  0.9628 -0.0750 -1.7809
  361SOL    HW2 1096   2.033   1.474   1.210  0.5759 -0.4823  0.5161
  362SOL     OW 1097   2.857   0.834   0.456 -0.4977 -0.0566  0.0838
  362SOL    HW1 1098   2.920   0.902   0.477  1.3606 -0.6834 -2.8994
  362SOL    HW2 1099   2.789   0.878   0.406  1.2512 -0.3865 -2.8001
  363SOL     OW 1100   3.075   0.014   1.016 -0.6734  0.1007 -0.1038
  363SOL    HW1 1101   3.142   0.078   1.042  1.5218 -1.1503 -2.2947
  363SOL    HW2 1102   3.101  -0.067   1.060 -0.3189 -0.5581 -1.4938
  364SOL     OW 1103   3.336   0.379   1.789 -0.3883  0.1012 -0.0543
  364SOL    HW1 1104   3.367   0.291   1.812 -0.9521  0.5060  2.4931
  364SOL    HW2 1105   3.245   0.366   1.760 -0.1443 -0.2461 -0.6908
  365SOL     OW 1106   0.400   0.323   0.291  0.2230  0.6368 -0.3186
  365SOL    HW1 1107   0.341   0.248   0.294  0.5700  0.3440 -0.7369
  365SOL    HW2 1108   0.343   0.398   0.273  0.1364  0.1579 -2.2868
  366SOL     OW 1109   2.263   2.451   1.530 -0.0099  0.1146 -0.3124
  366SOL    HW1 1110   2.206   2.383   1.495  0.4793 -0.3902 -0.1458
  366SOL    HW2 1111   2.207   2.502   1.589 -0.8022  0.8717 -1.6674
  367SOL     OW 1112   1.586   2.483   1.029  0.4071  0.0563  0.0410
  367SOL    HW1 1113   1.623   2.441   0.951  1.4070 -1.9969  1.5446
  367SOL    HW2 1114   1.661   2.498   1.086 -0.6311 -1.1217  1.7865
  368SOL     OW 1115   2.761   2.637   1.041 -0.4122  0.6681 -0.0641
  368SOL    HW1 1116   2.832   2.622   0.978 -0.2042 -3.5036  0.8801
  368SOL    HW2 1117   2.805   2.644   1.125 -0.9847 -0.2836  0.3293
  369SOL     OW 1118   1.220   0.875   0.905  0.2720  0.1414 -0.1989
  369SOL    HW1 1119   1.223   0.908   0.816  2.0630  0.1096 -0.1956
  369SOL    HW2 1120   1.180   0.945   0.956  0.3443  0.6463 -0.8246
  370SOL     OW 1121   3.084   0.499   1.282 -0.1011 -0.4597  0.2928
  370SOL    HW1 1122   3.115   0.498   1.372 -0.1851 -1.4235  0.3210
  370SOL    HW2 1123   3.076   0.592   1.260 -0.1537 -0.2189  1.2985
  371SOL     OW 1124   2.645   0.049   1.230 -0.3322  0.7944 -0.2490
  371SOL    HW1 1125   2.710   0.117   1.248  0.2326  0.2493 -0.1768
  371SOL    HW2 1126   2.696  -0.033   1.229 -1.0341  0.3454 -0.0764
  372SOL     OW 1127   2.446   1.089   0.156 -0.2289 -0.2725 -0.3249
  372SOL    HW1 1128   2.468   1.018   0.095 -0.6535 -1.1516  0.5141
  372SOL    HW2 1129   2.489   1.065   0.238 -0.1489  0.5936 -0.1046
  373SOL     OW 1130   3.801   1.931   1.548  0.3229  0.1807 -0.5765
  373SOL    HW1 1131   3.800   1.841   1.516 -0.8320 -0.3932  0.9356
  373SOL    HW2 1132   3.733   1.976   1.498 -0.3005 -0.2623 -0.1433
  374SOL     OW 1133   2.403   0.934   0.390  0.1122 -0.2677 -0.1175
  374SOL    HW1 1134   2.334   0.999   0.398  0.6388  0.3650 -0.5749
  374SOL    HW2 1135   2.390   0.875   0.464 -0.8827 -0.1330 -0.1770
  375SOL     OW 1136   1.462   2.004   0.308  0.1253  0.4577 -1.0160
  375SOL    HW1 1137   1.460   2.016   0.403  1.5500  0.2267 -0.9265
  375SOL    HW2 1138   1.395   1.939   0.290 -0.9410  1.3302 -0.3141
  376SOL     OW 1139   0.541   0.908   0.351 -0.3562  0.2538  0.0858
  376SOL    HW1 1140   0.600   0.956   0.292 -0.8569  0.8894  0.0882
  376SOL    HW2 1141   0.466   0.966   0.361 -1.8123 -1.2656 -1.3485
  377SOL     OW 1142   2.395   2.726   0.164 -0.3443  0.5870  0.0131
  377SOL    HW1 1143   2.353   2.773   0.091  0.2282  2.4492  0.8401
  377SOL    HW2 1144   2.353   2.640   0.163 -0.7492  0.7378 -2.1633
  378SOL     OW 1145   2.388   0.103   1.380 -0.5061  0.2593 -0.3945
  378SOL    HW1 1146   2.355   0.013   1.381  0.9147 -0.2784 -0.0824
  378SOL    HW2 1147   2.471   0.097   1.334 -0.4322  1.4403 -0.4272
  379SOL     OW 1148   1.185   1.387   0.430  0.1621  0.0704 -0.2672
  379SOL    HW1 1149   1.118   1.419   0.370 -0.2914  0.1066  0.2490
  379SOL    HW2 1150   1.161   1.296   0.446 -1.9049  0.9703  2.6903
  380SOL     OW 1151   1.963   1.330   0.907  0.5625 -0.0594  0.1503
  380SOL    HW1 1152   2.025   1.341   0.980  1.8854  0.3325 -0.9912
  380SOL    HW2 1153   1.989   1.248   0.866  0.0893 -0.0617 -0.1491
  381SOL     OW 1154   1.438   0.356   1.625  0.4284  0.1072 -0.3172
  381SOL    HW1 1155   1.517   0.308   1.653  0.5359 -0.3340 -1.3282
  381SOL    HW2 1156   1.411   0.404   1.703 -0.4015 -2.5431  1.1612
  382SOL     OW 1157   2.456   0.569   1.412  0.5802 -0.4596 -0.0473
  382SOL    HW1 1158   2.446   0.508   1.339 -2.0263 -0.9892  0.6532
  382SOL    HW2 1159   2.451   0.655   1.371 -1.5370 -0.7455 -0.4748
  383SOL     OW 1160   2.812   0.579   1.210 -0.3373  0.1532  0.1982
  383SOL    HW1 1161   2.898   0.566   1.252 -0.6897 -0.6661  0.6998
  383SOL    HW2 1162   2.809   0.672   1.190  1.0049  0.0640 -0.5595
  384SOL     OW 1163   0.225   1.865   0.092  0.1030  0.3489 -0.4476
  384SOL    HW1 1164   0.231   1.943   0.146  1.3046  2.3012 -3.1768
  384SOL    HW2 1165   0.138   1.829   0.111 -0.1727  1.8701  1.4330
  385SOL     OW 1166   3.664   2.574   1.306 -0.3152  0.1837  0.2080
  385SOL    HW1 1167   3.734   2.573   1.241 -0.1794  1.9677  0.2921
  385SOL    HW2 1168   3.583   2.580   1.255 -0.3582 -0.7966  0.1463
  386SOL     OW 1169   1.908   1.722   0.614 -0.1482 -0.1716  0.1833
  386SOL    HW1 1170   1.865   1.698   0.532 -0.1685 -0.0965  0.1719
  386SOL    HW2 1171   1.873   1.661   0.679  0.3814 -0.6775 -0.0006
  387SOL     OW 1172   3.350   0.419   0.834 -0.0217 -0.0919  0.0759
  387SOL    HW1 1173   3.329   0.483   0.902  0.9215 -0.6829  0.9550
  387SOL    HW2 1174   3.379   0.471   0.759  1.2612  0.5232  0.9626
  388SOL     OW 1175   2.425   0.930   1.014  0.0204 -0.5841  0.0088
  388SOL    HW1 1176   2.464   0.852   1.052  0.7319 -0.2106  0.0744
  388SOL    HW2 1177   2.445   1.000   1.077  1.1621  0.0333 -0.9740
  389SOL     OW 1178   2.705   0.274   0.189  0.2288 -0.2799 -0.1534
  389SOL    HW1 1179   2.611   0.269   0.205  0.6229 -1.9078  2.0834
  389SOL    HW2 1180   2.739   0.328   0.260  0.9196  1.3484 -1.6294
  390SOL     OW 1181   1.022   0.598   1.311 -0.1741 -0.0833  0.1868
  390SOL    HW1 1182   1.005   0.514   1.352  1.8583 -1.2396 -1.1352
  390SOL    HW2 1183   0.996   0.663   1.377 -1.7556 -1.7086  1.2508
  391SOL     OW 1184   0.929   0.975   0.523  0.4017 -0.0704 -0.0072
  391SOL    HW1 1185   0.921   0.942   0.613  1.4938  0.4763  0.3030
  391SOL    HW2 1186   0.839   0.996   0.498 -0.1501 -1.9209  0.2910
  392SOL     OW 1187   1.371   2.360   0.449 -0.0802 -0.7233  0.2427
  392SOL    HW1 1188   1.289   2.315   0.469  0.2074 -1.6946 -0.6143
  392SOL    HW2 1189   1.401   2.395   0.532 -0.1405 -2.4747  1.0490
  393SOL     OW 1190   2.288   0.231   0.441 -0.0230  0.3537  0.4614
  393SOL    HW1 1191   2.267   0.197   0.528 -1.9331 -2.5712 -1.0150
  393SOL    HW2 1192   2.278   0.326   0.450 -0.0460  0.1675  3.4300
  394SOL     OW 1193   1.476   0.694   0.457 -0.4421 -0.1863 -0.6107
  394SOL    HW1 1194   1.472   0.699   0.552  2.2793  0.3857 -0.4402
  394SOL    HW2 1195   1.489   0.601   0.438  0.3694 -0.1412 -0.3093
  395SOL     OW 1196   3.384   1.996   1.469  0.1297  0.3179  0.0826
  395SOL    HW1 1197   3.384   1.916   1.521  0.6231 -0.8758 -1.6455
  395SOL    HW2 1198   3.320   2.053   1.511  0.1996 -0.7452  1.6954
  396SOL     OW 1199   1.976   2.011   1.525 -0.5710  0.4330 -0.5721
  396SOL    HW1 1200   2.007   1.928   1.489 -1.5514 -1.0689  1.7598
  396SOL    HW2 1201   1.887   2.020   1.491 -0.0136  1.2735 -1.8888
  397SOL     OW 1202   0.624   1.570   0.865 -0.1006 -0.6667  0.4071
  397SOL    HW1 1203   0.645   1.494   0.919  0.9132 -0.5620  0.1781
  397SOL    HW2 1204   0.707   1.593   0.822 -0.7501 -0.4066 -0.7639
  398SOL     OW 1205   1.464   1.398   0.441 -0.0425 -0.6757  0.0186
  398SOL    HW1 1206   1.481   1.334   0.372  1.5184 -1.0533  0.7099
  398SOL    HW2 1207   1.369   1.412   0.438 -0.0501 -0.8912 -1.9893
  399SOL     OW 1208   2.352   2.355   1.235  0.1587 -0.2249 -0.3172
  399SOL    HW1 1209   2.341   2.279   1.292  0.0091 -0.2175 -0.3348
  399SOL    HW2 1210   2.431   2.399   1.268 -0.5239  0.3695  0.5761
  400SOL     OW 1211   3.261   1.229   1.374  0.2317  0.0364  0.4327
  400SOL    HW1 1212   3.299   1.182   1.449  0.0398  0.8809  1.0746
  400SOL    HW2 1213   3.304   1.315   1.376  0.9142 -0.2421 -0.9910
  401SOL     OW 1214   2.688   1.218   1.092  0.0325 -0.7462 -0.0949
  401SOL    HW1 1215   2.731   1.239   1.010 -0.3798 -1.5660 -0.5285
  401SOL    HW2 1216   2.599   1.253   1.083  0.0720 -0.5875  0.1142
  402SOL     OW 1217   2.240   0.480   0.114  0.4209  0.4350  0.3258
  402SOL    HW1 1218   2.200   0.556   0.157 -1.4093 -0.5319  0.4192
  402SOL    HW2 1219   2.176   0.453   0.048  2.4338  0.8609 -1.9350
  403SOL     OW 1220   1.130   1.118   0.396 -0.9915 -0.3104  0.2732
  403SOL    HW1 1221   1.129   1.079   0.308 -2.7332  0.8545 -0.2739
  403SOL    HW2 1222   1.062   1.069   0.444 -1.6301  0.5405  0.2583
  404SOL     OW 1223   2.336   2.220   0.709 -0.2268  0.1262 -0.2472
  404SOL    HW1 1224   2.252   2.237   0.666  0.1093  0.0610 -0.9382
  404SOL    HW2 1225   2.373   2.146   0.662  0.8788  1.0571 -0.9054
  405SOL     OW 1226   1.389   2.402   1.205  0.0107 -0.2224 -0.1142
  405SOL    HW1 1227   1.437   2.338   1.259 -0.0920 -1.1690 -1.1104
  405SOL    HW2 1228   1.452   2.429   1.138  0.1671  1.0266  0.5014
  406SOL     OW 1229   3.696   1.408   1.614 -0.5624  0.2191 -0.2435
  406SOL    HW1 1230   3.791   1.395   1.617 -0.6150  0.0366  1.3053
  406SOL    HW2 1231   3.685   1.493   1.571  0.3469  0.5482  0.1471
  407SOL     OW 1232   3.087   1.787   1.187 -0.6632 -0.1818 -0.0072
  407SOL    HW1 1233   3.131   1.755   1.108 -0.0024 -1.6562  0.9300
  407SOL    HW2 1234   3.119   1.877   1.196  0.9177 -0.6718 -0.2697
  408SOL     OW 1235   1.314   1.177   1.754  0.4529  0.1919 -0.0555
  408SOL    HW1 1236   1.322   1.217   1.841 -0.6707  1.4868 -0.5040
  408SOL    HW2 1237   1.382   1.110   1.752 -0.4869 -0.9802  2.4006
  409SOL     OW 1238   2.006   1.712   0.952 -0.1495  0.2120  0.9129
  409SOL    HW1 1239   1.932   1.664   0.916 -0.2985 -0.4620  2.0606
  409SOL    HW2 1240   2.027   1.666   1.033  2.1090 -0.1874  0.1898
  410SOL     OW 1241   3.388   2.394   1.887 -0.5790 -0.7446  0.1057
  410SOL    HW1 1242   3.464   2.394   1.945 -1.4607 -2.3562  1.3449
  410SOL    HW2 1243   3.313   2.384   1.946 -1.7797  0.8227 -1.0865
  411SOL     OW 1244   0.875   0.075   0.074  0.2457 -0.0027 -0.2897
  411SOL    HW1 1245   0.963   0.077   0.112  0.3979 -2.2087 -0.3876
  411SOL    HW2 1246   0.817   0.083   0.150  0.5361  0.5728 -0.1248
  412SOL     OW 1247   1.787   0.383   1.166 -0.0583 -0.2125 -0.3815
  412SOL    HW1 1248   1.806   0.311   1.226  1.0061  0.9484  0.7343
  412SOL    HW2 1249   1.776   0.342   1.081  0.0346 -1.7349  0.3215
  413SOL     OW 1250   0.622   0.336   0.435  0.0063  0.4692  0.3465
  413SOL    HW1 1251   0.541   0.341   0.385  1.0409 -1.8429 -1.7530
  413SOL    HW2 1252   0.691   0.360   0.373  1.1213  0.2494  1.4516
  414SOL     OW 1253   3.405   2.105   1.846 -0.3302 -0.5255  0.3465
  414SOL    HW1 1254   3.364   2.118   1.931 -1.5774  0.0819 -0.3098
  414SOL    HW2 1255   3.334   2.121   1.783  0.8267  0.1799 -0.8374
  415SOL     OW 1256   1.394   2.799   0.087  0.3808 -0.9220 -0.3012
  415SOL    HW1 1257   1.444   2.879   0.067 -0.3776 -0.5528 -0.7890
  415SOL    HW2 1258   1.460   2.733   0.106  1.0318 -0.2670 -0.2644
  416SOL     OW 1259   2.325   1.338   0.115 -0.2337 -0.2291  0.6316
  416SOL    HW1 1260   2.349   1.342   0.023 -2.9444  0.0932 -0.1696
  416SOL    HW2 1261   2.347   1.249   0.142  1.5791  0.0029  0.0115
  417SOL     OW 1262   1.437   2.684   1.132 -0.8310  0.5022  0.1192
  417SOL    HW1 1263   1.443   2.765   1.081 -1.3517  0.3330 -0.2203
  417SOL    HW2 1264   1.489   2.621   1.083  0.1482  0.8040  0.7476
  418SOL     OW 1265   1.201   2.304   1.486  1.2615  0.2306  0.0230
  418SOL    HW1 1266   1.151   2.366   1.538  0.0296 -1.2178  0.6552
  418SOL    HW2 1267   1.282   2.291   1.535 -0.0684 -1.4613  1.9227
  419SOL     OW 1268   2.443   2.751   1.851  0.3577  0.6312 -1.0698
  419SOL    HW1 1269   2.378   2.683   1.834  0.5880 -0.1027  0.7933
  419SOL    HW2 1270   2.394   2.821   1.895  0.6520  0.4415 -0.4302
  420SOL     OW 1271   2.261   2.518   1.048  0.2902  0.2691 -0.4829
  420SOL    HW1 1272   2.311   2.443   1.082 -0.0781  0.4560  0.5189
  420SOL    HW2 1273   2.299   2.594   1.092  0.8239  0.7101 -1.6811
  421SOL     OW 1274   2.630   0.721   1.565  0.1208  0.0021  0.1520
  421SOL    HW1 1275   2.662   0.800   1.520  1.4137 -0.2958  0.5393
  421SOL    HW2 1276   2.570   0.682   1.502  1.0048  0.2273 -0.8642
  422SOL     OW 1277   2.532   2.010   0.629  0.4247 -0.0608  0.0289
  422SOL    HW1 1278   2.478   1.977   0.701 -1.4019  1.2462 -0.6691
  422SOL    HW2 1279   2.499   1.965   0.552 -0.3981  1.4715 -0.5548
  423SOL     OW 1280   2.802   0.262   1.259  0.0721 -0.0419 -0.5124
  423SOL    HW1 1281   2.857   0.312   1.197 -2.8695  2.2615 -1.4961
  423SOL    HW2 1282   2.763   0.329   1.315 -2.6159 -1.3967 -0.6415
  424SOL     OW 1283   2.481   1.359   0.697 -0.0385 -0.5715 -0.0959
  424SOL    HW1 1284   2.417   1.421   0.663  0.3537 -0.1959 -0.1560
  424SOL    HW2 1285   2.430   1.280   0.716 -0.6071 -0.1076  0.3394
  425SOL     OW 1286   1.717   1.168   0.757  0.9146 -0.3200 -0.0092
  425SOL    HW1 1287   1.625   1.180   0.779  1.5506  0.2148  2.6975
  425SOL    HW2 1288   1.730   1.224   0.681 -0.9476 -0.2974 -0.3640
  426SOL     OW 1289   0.473   1.765   0.045 -0.3393 -0.2407  0.2229
  426SOL    HW1 1290   0.385   1.801   0.059 -0.1237  0.2740  0.2874
  426SOL    HW2 1291   0.520   1.787   0.125 -0.4514 -1.4620  0.6448
  427SOL     OW 1292   1.692   0.236   1.690 -0.1593  0.1247 -0.2793
  427SOL    HW1 1293   1.655   0.224   1.777 -1.9508  1.0592 -0.8499
  427SOL    HW2 1294   1.779   0.274   1.705 -0.5198  0.4496  1.0904
  428SOL     OW 1295   3.468   2.527   1.109  1.5396  0.0999  0.2437
  428SOL    HW1 1296   3.549   2.560   1.071  1.0926 -1.0156 -1.8305
  428SOL    HW2 1297   3.457   2.440   1.070  0.4017 -0.6254  2.0877
  429SOL     OW 1298   3.149   1.069   0.444  0.2540  0.1032 -0.2289
  429SOL    HW1 1299   3.076   1.049   0.503  1.8361 -0.9474  1.5129
  429SOL    HW2 1300   3.111   1.124   0.376 -1.9412  0.3611  1.1052
  430SOL     OW 1301   1.422   0.645   0.714 -0.0813  0.5524  0.4510
  430SOL    HW1 1302   1.467   0.717   0.757  1.5408  0.1473 -0.4703
  430SOL    HW2 1303   1.442   0.568   0.768  1.2984  0.1822 -0.5325
  431SOL     OW 1304   3.647   2.047   1.350 -0.0106 -0.3464  0.0250
  431SOL    HW1 1305   3.556   2.021   1.345  0.2243 -1.3650  0.7912
  431SOL    HW2 1306   3.644   2.135   1.388 -0.6029 -1.1398  1.9326
  432SOL     OW 1307   1.105   0.158   0.558 -0.3593  0.4406  0.0735
  432SOL    HW1 1308   1.123   0.208   0.478 -1.3320 -1.6398 -1.5704
  432SOL    HW2 1309   1.026   0.198   0.595  2.4526  4.3162  2.7085
  433SOL     OW 1310   1.748   1.487   1.601  0.0761 -0.7547  0.2316
  433SOL    HW1 1311   1.775   1.551   1.535 -1.8547  0.0999  0.1985
  433SOL    HW2 1312   1.768   1.402   1.563  0.1500 -0.2362 -0.9200
  434SOL     OW 1313   1.637   0.434   0.283  0.1242  0.4727  0.0930
  434SOL    HW1 1314   1.695   0.397   0.217 -0.0796 -1.2496  0.8334
  434SOL    HW2 1315   1.551   0.440   0.241 -0.0272 -0.7134  0.2016
  435SOL     OW 1316   3.463   2.729   1.528  0.3799  0.0873 -0.2163
  435SOL    HW1 1317   3.484   2.683   1.447  1.4194 -2.0443  1.1548
  435SOL    HW2 1318   3.379   2.690   1.556  0.5078  0.0999  0.1962
  436SOL     OW 1319   3.160   1.593   0.588 -0.0514  0.1181 -0.5425
  436SOL    HW1 1320   3.237   1.645   0.610  1.6702 -1.9249 -1.4026
  436SOL    HW2 1321   3.195   1.513   0.550 -2.6437 -0.4676 -1.9423
  437SOL     OW 1322   1.405   0.392   0.155  0.2108 -0.1619 -0.2712
  437SOL    HW1 1323   1.339   0.460   0.140  1.0923  0.8479  0.3088
  437SOL    HW2 1324   1.383   0.324   0.091 -0.0062  1.1640 -1.6793
  438SOL     OW 1325   1.218   0.575   0.094  0.2913 -0.0759 -0.3308
  438SOL    HW1 1326   1.128   0.555   0.119  0.8740 -1.0511  1.1501
  438SOL    HW2 1327   1.224   0.670   0.102  0.0974 -0.2136  2.3185
  439SOL     OW 1328   3.134   0.348   0.609 -0.0051 -0.0315 -0.0200
  439SOL    HW1 1329   3.166   0.421   0.556 -0.5970 -0.0312 -0.3823
  439SOL    HW2 1330   3.137   0.381   0.699  2.3807 -0.5300  0.1271
  440SOL     OW 1331   2.056   1.832   1.352  0.2366 -0.2287  0.3197
  440SOL    HW1 1332   2.150   1.842   1.362  0.4152 -0.1344 -1.2630
  440SOL    HW2 1333   2.044   1.799   1.263 -1.2401  0.1415  0.3550
  441SOL     OW 1334   1.563   0.843   0.806 -0.1999 -0.1637 -0.2151
  441SOL    HW1 1335   1.541   0.832   0.899 -1.4142 -1.6787 -0.6295
  441SOL    HW2 1336   1.644   0.893   0.806 -0.9817  1.1934  1.6025
  442SOL     OW 1337   3.952   0.639   1.862 -0.0277 -0.5324 -0.3592
  442SOL    HW1 1338   4.041   0.673   1.850 -0.3131  0.0188 -0.9619
  442SOL    HW2 1339   3.955   0.550   1.828  1.2720 -2.0112  3.1107
  443SOL     OW 1340   1.247   0.859   1.387 -0.1454  0.5843 -0.2670
  443SOL    HW1 1341   1.157   0.889   1.375  0.5247  2.5289 -0.7507
  443SOL    HW2 1342   1.298   0.939   1.402  1.2054 -0.6146  2.1913
  444SOL     OW 1343   0.473   0.344   0.040  0.6662 -0.5624  1.0230
  444SOL    HW1 1344   0.447   0.341   0.132  0.5086 -2.4012  0.9495
  444SOL    HW2 1345   0.394   0.320  -0.008 -0.7101  4.7543 -0.0315
  445SOL     OW 1346   3.354   1.747   1.601  0.0531 -0.0210  0.2076
  445SOL    HW1 1347   3.270   1.772   1.639 -0.2651  0.9046 -1.0325
  445SOL    HW2 1348   3.341   1.657   1.571 -0.1889 -0.2003  0.8267
  446SOL     OW 1349   2.769   0.969   0.778  0.1179 -0.0383 -0.2366
  446SOL    HW1 1350   2.682   1.004   0.792  0.1100 -1.3183  4.9271
  446SOL    HW2 1351   2.760   0.875   0.793  2.0454 -0.6132 -2.1214
  447SOL     OW 1352   2.762   2.247   1.221 -0.7658  0.0616  0.8256
  447SOL    HW1 1353   2.730   2.191   1.292 -0.4088 -1.0782  0.1072
  447SOL    HW2 1354   2.840   2.202   1.188  0.7261  1.9725  1.5132
  448SOL     OW 1355   1.953   1.251   1.853 -0.6978 -0.0478 -1.0147
  448SOL    HW1 1356   1.977   1.201   1.931  0.1374 -1.9610 -2.4070
  448SOL    HW2 1357   1.920   1.335   1.887  1.0571 -0.1943  1.3066
  449SOL     OW 1358   1.969   0.312   0.593  0.0838  0.4849  0.2112
  449SOL    HW1 1359   1.903   0.250   0.624 -0.2876 -0.6671 -2.6438
  449SOL    HW2 1360   1.918   0.385   0.559  0.2641 -0.0969 -1.3600
  450SOL     OW 1361   1.409   2.476   0.692  0.4115 -0.0428 -0.0159
  450SOL    HW1 1362   1.479   2.444   0.749  0.6095 -0.9809 -0.7570
  450SOL    HW2 1363   1.332   2.481   0.748  1.6696  4.0430  1.6763
  451SOL     OW 1364   3.415   2.309   1.618 -0.2828 -0.0916  0.4352
  451SOL    HW1 1365   3.401   2.327   1.711 -0.1186  2.0291  0.1008
  451SOL    HW2 1366   3.338   2.345   1.574  0.3413  0.3203 -0.3550
  452SOL     OW 1367   3.119   2.324   1.632  0.1924 -0.1557  0.3197
  452SOL    HW1 1368   3.025   2.310   1.639  0.5250 -1.9048  3.2104
  452SOL    HW2 1369   3.131   2.418   1.644 -1.2416  0.4990 -2.5932
  453SOL     OW 1370   2.621   1.805   1.218  0.0304  0.1566 -0.1849
  453SOL    HW1 1371   2.589   1.716   1.202  0.2740 -0.3311  1.8441
  453SOL    HW2 1372   2.713   1.794   1.241 -0.2903  0.7578  1.4844
  454SOL     OW 1373   1.286   2.520   0.224 -0.5594 -0.2455  0.3489
  454SOL    HW1 1374   1.312   2.441   0.271  0.7081  0.7560  1.3958
  454SOL    HW2 1375   1.238   2.572   0.288 -1.7053 -0.2818 -0.4380
  455SOL     OW 1376   2.285   1.403   1.340  0.3666 -0.5385  0.1080
  455SOL    HW1 1377   2.363   1.440   1.381  1.1863 -1.6451 -0.3636
  455SOL    HW2 1378   2.263   1.327   1.394 -1.3895  0.6811  1.1714
  456SOL     OW 1379   1.677   0.810   0.258  0.0147  0.3157 -0.0289
  456SOL    HW1 1380   1.656   0.892   0.302  0.4857  0.9393 -0.9351
  456SOL    HW2 1381   1.600   0.754   0.271 -1.4065  1.8000 -1.5410
  457SOL     OW 1382   2.612   0.133   1.591  0.4743  0.1263  0.0901
  457SOL    HW1 1383   2.517   0.134   1.581  0.5664  1.0975 -0.8576
  457SOL    HW2 1384   2.640   0.057   1.539  0.2085 -0.2292  0.4660
  458SOL     OW 1385   1.211   1.569   0.661  0.1613 -0.3738  0.2227
  458SOL    HW1 1386   1.236   1.513   0.587  0.8381  1.8010 -1.2792
  458SOL    HW2 1387   1.161   1.640   0.622  0.6950  0.9516  1.8228
  459SOL     OW 1388   2.806   1.798   1.524  0.2086 -0.1065 -0.1165
  459SOL    HW1 1389   2.759   1.716   1.510  1.7360 -1.2800  1.2913
  459SOL    HW2 1390   2.752   1.846   1.587  0.3003 -0.9374  0.6105
  460SOL     OW 1391   2.886   2.466   0.199  0.0185 -0.0155 -0.1370
  460SOL    HW1 1392   2.938   2.483   0.120 -0.7299  1.3232 -0.3870
  460SOL    HW2 1393   2.797   2.452   0.166  0.0346 -1.3898  0.3487
  461SOL     OW 1394   1.493   2.255   1.517 -0.4187 -0.3719 -0.0850
  461SOL    HW1 1395   1.543   2.268   1.436  3.0257 -2.7010  1.4085
  461SOL    HW2 1396   1.480   2.160   1.523 -1.2503 -0.1918  1.7013
  462SOL     OW 1397   0.914   0.239   1.149 -0.0359  0.3035  0.4883
  462SOL    HW1 1398   0.826   0.273   1.136 -0.7940 -1.9675 -0.8418
  462SOL    HW2 1399   0.962   0.267   1.071  0.2916  1.1115  0.9732
  463SOL     OW 1400   2.278   2.508   1.845 -0.2383  0.2871 -0.3742
  463SOL    HW1 1401   2.211   2.440   1.853 -0.5328  0.6374  0.2974
  463SOL    HW2 1402   2.355   2.462   1.812 -0.9744 -0.0088 -1.7306
  464SOL     OW 1403   1.094   2.014   0.623 -0.3972 -0.3607 -0.1703
  464SOL    HW1 1404   1.126   2.088   0.571  0.5233 -0.5684  0.1021
  464SOL    HW2 1405   1.087   2.049   0.712 -0.0183 -0.5856 -0.0528
  465SOL     OW 1406   0.276   2.203  -0.020 -0.1905 -0.7814 -0.6299
  465SOL    HW1 1407   0.308   2.251   0.057  1.8657 -2.0043 -0.6392
  465SOL    HW2 1408   0.220   2.134   0.016 -0.1034 -0.6890 -0.3145
  466SOL     OW 1409   1.958   0.893   0.297 -0.0439  0.3764  0.4380
  466SOL    HW1 1410   1.884   0.874   0.239 -0.4359 -2.3076  1.6364
  466SOL    HW2 1411   1.917   0.916   0.380  0.4699  0.0583  0.7814
  467SOL     OW 1412   3.386   0.860   1.137 -0.0669 -0.5578  0.4509
  467SOL    HW1 1413   3.341   0.789   1.092 -0.7583 -0.5419  1.0900
  467SOL    HW2 1414   3.333   0.876   1.216  0.4376  0.2245  0.6466
  468SOL     OW 1415   2.666   0.340   0.726 -0.3712  0.0457 -0.0216
  468SOL    HW1 1416   2.639   0.367   0.814  0.5458 -0.3285  0.3860
  468SOL    HW2 1417   2.591   0.291   0.693 -1.3999  1.6206 -0.1303
  469SOL     OW 1418   1.599   1.218   1.570  0.2524  0.0485 -0.0194
  469SOL    HW1 1419   1.575   1.268   1.648  1.5909  0.4142  0.1954
  469SOL    HW2 1420   1.691   1.193   1.585  1.0252  1.3466 -2.0673
  470SOL     OW 1421   1.242   1.815   0.239  0.0291 -0.3131 -0.2216
  470SOL    HW1 1422   1.285   1.730   0.244 -1.6472 -1.2273 -0.6186
  470SOL    HW2 1423   1.264   1.848   0.152  1.7895  0.3303  0.4094
  471SOL     OW 1424   1.778   0.050   1.180  0.1977  0.5932  0.6307
  471SOL    HW1 1425   1.757  -0.012   1.110 -0.8818  3.0379 -1.3807
  471SOL    HW2 1426   1.874   0.057   1.178  0.1464  1.3745 -1.4072
  472SOL     OW 1427   2.888   0.993   1.718 -1.2273 -0.8200  0.0039
  472SOL    HW1 1428   2.971   1.034   1.742 -1.3090  0.5011 -1.8073
  472SOL    HW2 1429   2.905   0.899   1.727  0.6603 -0.6121 -0.8179
  473SOL     OW 1430   3.465   0.340   1.139 -0.6282  0.9628  0.2971
  473SOL    HW1 1431   3.397   0.370   1.199 -0.4687  1.3691  0.2762
  473SOL    HW2 1432   3.417   0.311   1.061 -0.7412  1.8103  0.0454
  474SOL     OW 1433   0.985   2.193   0.132  0.8755  0.3118 -0.5015
  474SOL    HW1 1434   1.016   2.140   0.059  0.7199  0.6056 -0.7792
  474SOL    HW2 1435   1.027   2.278   0.120  1.1503  0.2484 -0.0379
  475SOL     OW 1436   1.630   2.705   0.641 -0.0652 -0.1643  0.3659
  475SOL    HW1 1437   1.657   2.686   0.551  1.7012  0.4870  0.7194
  475SOL    HW2 1438   1.572   2.633   0.664 -0.4511 -0.4064 -1.2536
  476SOL     OW 1439   1.716   1.885   0.057  0.6963  0.6510 -0.2353
  476SOL    HW1 1440   1.717   1.980   0.066  0.5652  0.4805  2.3785
  476SOL    HW2 1441   1.633   1.859   0.098 -0.6999 -0.4646 -3.4698
  477SOL     OW 1442   2.974   2.071   1.964  0.5235  0.1261  0.3268
  477SOL    HW1 1443   3.058   2.035   1.994  0.8682  1.9719  1.7694
  477SOL    HW2 1444   2.995   2.158   1.932 -0.7591  0.3969  0.1609
  478SOL     OW 1445   1.310   2.818   1.754  0.5072 -0.5973 -0.5855
  478SOL    HW1 1446   1.310   2.811   1.659 -0.0993  0.2187 -0.6560
  478SOL    HW2 1447   1.219   2.806   1.779  0.5852 -0.3000 -0.1460
  479SOL     OW 1448   3.321   2.644   1.292  0.3350  0.2400  0.2136
  479SOL    HW1 1449   3.370   2.598   1.224  5.3186  1.1062  2.7545
  479SOL    HW2 1450   3.246   2.587   1.310  1.2506 -2.2247 -2.8505
  480SOL     OW 1451   2.579   1.533   1.169  0.2588 -0.3538 -0.4651
  480SOL    HW1 1452   2.534   1.473   1.109  1.3453 -1.2278 -0.4347
  480SOL    HW2 1453   2.668   1.539   1.134  0.8216 -0.6270  0.8838
  481SOL     OW 1454   2.219   1.611   1.833 -0.0492 -0.4756  0.0638
  481SOL    HW1 1455   2.175   1.553   1.770  0.4000 -0.5939 -0.1503
  481SOL    HW2 1456   2.278   1.553   1.881 -0.3980 -0.3873  0.6107
  482SOL     OW 1457   1.638   0.580   1.082 -0.9175 -0.7215 -0.1891
  482SOL    HW1 1458   1.664   0.661   1.126  0.5693 -1.0195 -0.4470
  482SOL    HW2 1459   1.695   0.513   1.121 -0.9418 -1.3321 -1.1820
  483SOL     OW 1460   3.220   0.617   1.010  0.2576 -0.2660  0.9067
  483SOL    HW1 1461   3.175   0.555   0.953  0.7529 -0.1906  0.4203
  483SOL    HW2 1462   3.152   0.650   1.068 -0.2890 -0.2461  0.2739
  484SOL     OW 1463   2.732   0.834   1.138 -0.4212 -0.1346 -0.6342
  484SOL    HW1 1464   2.799   0.902   1.132  0.9785 -1.0827  2.3859
  484SOL    HW2 1465   2.722   0.802   1.048  0.2255  2.7014 -1.8342
  485SOL     OW 1466   0.718   1.083   0.770  0.1305  0.2172 -0.0841
  485SOL    HW1 1467   0.728   0.989   0.758 -0.2718  0.2512 -0.6914
  485SOL    HW2 1468   0.624   1.099   0.765  0.2583  0.7709 -0.9079
  486SOL     OW 1469   0.738   2.271   0.713 -0.0769 -0.0490  0.3253
  486SOL    HW1 1470   0.774   2.185   0.691  1.5506  0.4119  0.9809
  486SOL    HW2 1471   0.698   2.259   0.799  2.1870  0.2700  1.5330
  487SOL     OW 1472   2.643   1.367   0.300  0.0317  0.0463  0.7396
  487SOL    HW1 1473   2.548   1.382   0.298 -0.0586 -0.2292  2.0487
  487SOL    HW2 1474   2.679   1.434   0.242 -0.9022  0.7587  0.9525
  488SOL     OW 1475   2.570   2.240   0.389  0.5831 -0.1227 -0.2376
  488SOL    HW1 1476   2.531   2.236   0.476  0.9638  0.2763 -0.0453
  488SOL    HW2 1477   2.584   2.333   0.373  0.4094 -0.1846 -0.7768
  489SOL     OW 1478   1.566   0.976   1.788 -0.2008  0.0605  0.3484
  489SOL    HW1 1479   1.593   0.917   1.858  0.5220 -0.7202 -0.5592
  489SOL    HW2 1480   1.596   1.062   1.817  3.8556 -0.7797 -0.7702
  490SOL     OW 1481   1.428   2.031   0.595  0.2054  0.1434 -0.1609
  490SOL    HW1 1482   1.443   1.951   0.646 -0.0886  1.3185  1.9213
  490SOL    HW2 1483   1.349   2.069   0.633 -0.3514  0.8322 -1.9209
  491SOL     OW 1484   3.262   2.798   1.968  0.0274  0.1637 -0.0838
  491SOL    HW1 1485   3.349   2.760   1.956  0.0822 -0.5147  2.0350
  491SOL    HW2 1486   3.275   2.867   2.033 -0.5440  2.1495 -1.9491
  492SOL     OW 1487   2.883   2.505   1.797  0.5191 -0.2045  0.5486
  492SOL    HW1 1488   2.789   2.507   1.780  0.4962 -0.7258  0.6121
  492SOL    HW2 1489   2.906   2.597   1.811  0.1694  0.0242 -0.2827
  493SOL     OW 1490   0.577   0.551   0.612 -0.6592  0.8900  0.1485
  493SOL    HW1 1491   0.623   0.500   0.546  0.5831  0.5200  1.2650
  493SOL    HW2 1492   0.491   0.568   0.574 -0.8885 -1.4835 -0.5168
  494SOL     OW 1493   1.055   1.753   0.536 -0.0344 -0.0329  0.9835
  494SOL    HW1 1494   1.033   1.767   0.443  2.0578  0.0411  0.4468
  494SOL    HW2 1495   1.080   1.840   0.567 -1.1440  0.0230  1.7727
  495SOL     OW 1496   1.928   0.722   1.074 -0.0925 -0.4423 -0.6132
  495SOL    HW1 1497   1.929   0.791   1.008 -2.7893  0.4715  0.1763
  495SOL    HW2 1498   1.863   0.751   1.138  0.7830 -2.3679  1.2799
  496SOL     OW 1499   1.700   2.375   0.755 -0.4245  0.5068  0.0251
  496SOL    HW1 1500   1.794   2.378   0.771 -0.3849  0.6104 -0.2215
  496SOL    HW2 1501   1.692   2.341   0.666 -0.6785 -1.4003  0.7296
  497SOL     OW 1502   3.295   1.499   1.314 -0.0864  0.0758 -0.1665
  497SOL    HW1 1503   3.249   1.494   1.230  1.1981 -1.4206 -0.8530
  497SOL    HW2 1504   3.367   1.560   1.299 -1.0479  1.4065  0.5049
  498SOL     OW 1505   1.141   1.889   1.276  0.0973 -0.3331 -0.3894
  498SOL    HW1 1506   1.127   1.980   1.300  1.5960 -0.3205  0.5807
  498SOL    HW2 1507   1.169   1.892   1.184 -2.0003 -0.0490 -1.0685
  499SOL     OW 1508   2.484   2.624   1.440  0.0520  0.3270  0.6838
  499SOL    HW1 1509   2.413   2.566   1.468  0.3269  0.4472  1.6881
  499SOL    HW2 1510   2.529   2.576   1.371 -0.3565 -0.2093  0.7850
  500SOL     OW 1511   1.838   1.694   1.453  0.0373  0.4324  0.2210
  500SOL    HW1 1512   1.904   1.760   1.432 -1.8813  1.9406 -1.4809
  500SOL    HW2 1513   1.766   1.745   1.493 -0.0544 -1.1826  2.2804
  501SOL     OW 1514   3.173   1.107   1.024 -0.5932  0.3402 -0.0251
  501SOL    HW1 1515   3.193   1.099   0.931 -0.4126 -1.9026  0.1648
  501SOL    HW2 1516   3.259   1.105   1.067 -0.7745 -0.9800  0.3054
  502SOL     OW 1517   2.335   1.834   1.385  0.6083 -0.1053  0.3218
  502SOL    HW1 1518   2.384   1.754   1.400 -0.6091 -0.9416 -0.0451
  502SOL    HW2 1519   2.368   1.867   1.301 -1.0362 -1.9251 -1.1253
  503SOL     OW 1520   2.585   1.399   1.838 -0.7600 -0.6028  0.4249
  503SOL    HW1 1521   2.661   1.411   1.894 -0.3609 -3.1576  0.5486
  503SOL    HW2 1522   2.599   1.460   1.765  0.7394 -0.1063  1.0938
  504SOL     OW 1523   3.769   1.738   1.832  0.5628  0.5265 -0.1145
  504SOL    HW1 1524   3.784   1.724   1.739  1.7138  1.8825 -0.1638
  504SOL    HW2 1525   3.677   1.765   1.837  0.9461  2.1127 -1.0765
  505SOL     OW 1526   3.800   2.740   1.535  0.7982 -0.2851 -0.2202
  505SOL    HW1 1527   3.817   2.647   1.546  0.3995 -0.4270 -0.7606
  505SOL    HW2 1528   3.808   2.755   1.440 -0.3194 -0.0145 -0.2813
  506SOL     OW 1529   0.812   1.428   0.449 -0.4685 -0.5255  0.2676
  506SOL    HW1 1530   0.719   1.430   0.469 -0.9420  0.0210 -1.7615
  506SOL    HW2 1531   0.826   1.503   0.392  0.9022 -1.4922 -0.7396
  507SOL     OW 1532   2.900   1.567   1.898 -0.5933 -0.1790 -0.1543
  507SOL    HW1 1533   2.941   1.632   1.842 -0.9222 -0.7283 -1.0451
  507SOL    HW2 1534   2.928   1.482   1.863 -3.5181 -0.6371 -1.6949
  508SOL     OW 1535   1.639   1.151   1.319 -0.2790  0.1924 -0.1806
  508SOL    HW1 1536   1.623   1.173   1.410  1.6189 -0.6347  0.3908
  508SOL    HW2 1537   1.652   1.235   1.276  0.4601  0.5126  0.6508
  509SOL     OW 1538   0.421   2.259   0.234  0.2659  0.6075 -0.0792
  509SOL    HW1 1539   0.502   2.270   0.185  0.9095 -3.2355 -0.1780
  509SOL    HW2 1540   0.449   2.253   0.326  0.0621 -0.3152 -0.0729
  510SOL     OW 1541   2.113   2.672   1.964  0.3187 -0.3214  0.0688
  510SOL    HW1 1542   2.183   2.614   1.934 -0.4071 -0.8687 -0.6109
  510SOL    HW2 1543   2.032   2.627   1.940 -0.2724  0.8667 -0.2587
  511SOL     OW 1544   3.616   2.599   1.730  0.1565  0.2223 -0.1309
  511SOL    HW1 1545   3.549   2.537   1.759  0.3896  0.9712  2.1643
  511SOL    HW2 1546   3.580   2.636   1.649 -0.7204 -1.6639 -0.6732
  512SOL     OW 1547   1.539   0.766   1.410  0.2956  0.7954  0.7455
  512SOL    HW1 1548   1.450   0.786   1.380  0.6038 -0.5007 -1.2131
  512SOL    HW2 1549   1.544   0.670   1.410  1.3947  0.8276  1.8017
  513SOL     OW 1550   1.933   2.195   1.712 -0.1909  0.3020  0.8629
  513SOL    HW1 1551   1.858   2.149   1.748 -0.7753  0.3803 -0.2280
  513SOL    HW2 1552   1.963   2.139   1.640 -0.8557  1.5687 -0.4251
  514SOL     OW 1553   2.956   0.188   1.903 -0.2379  0.3070 -0.1181
  514SOL    HW1 1554   2.998   0.215   1.821  1.0359 -2.3222 -0.4196
  514SOL    HW2 1555   2.863   0.195   1.885  0.0085 -0.6048 -1.9603
  515SOL     OW 1556   1.282   2.829   1.456  0.4496  0.6699 -0.1461
  515SOL    HW1 1557   1.371   2.824   1.422  0.5691 -0.3111  0.2726
  515SOL    HW2 1558   1.231   2.771   1.399 -0.3518  2.6539 -1.5752
  516SOL     OW 1559   0.329   0.658   0.015 -0.6099 -0.0343  0.1358
  516SOL    HW1 1560   0.334   0.605  -0.065 -1.6868 -0.8263  0.5698
  516SOL    HW2 1561   0.417   0.655   0.051 -0.4930 -1.0119 -0.1947
  517SOL     OW 1562   0.789   0.815   0.703  0.1583 -0.4205  0.6325
  517SOL    HW1 1563   0.711   0.760   0.705 -0.0726 -0.1092  0.3255
  517SOL    HW2 1564   0.862   0.754   0.709 -0.0612 -0.8578 -0.8291
  518SOL     OW 1565   3.850   2.739   1.837  0.3148 -0.4971 -0.2226
  518SOL    HW1 1566   3.796   2.683   1.782  0.1869 -0.1762 -0.4284
  518SOL    HW2 1567   3.814   2.827   1.824 -0.7546 -0.6038  1.5799
  519SOL     OW 1568   2.369   1.965   1.151 -0.0511  0.4839  0.0738
  519SOL    HW1 1569   2.358   2.031   1.082 -0.5111 -1.1295 -1.4848
  519SOL    HW2 1570   2.316   1.891   1.122 -0.0948 -0.3520  2.0938
  520SOL     OW 1571   0.667   0.646   0.291  0.0947 -0.5631  0.2786
  520SOL    HW1 1572   0.634   0.736   0.288 -0.8040 -0.9130 -1.6165
  520SOL    HW2 1573   0.759   0.656   0.315 -0.3237  0.7416  1.4873
  521SOL     OW 1574   2.646  -0.003   0.653  0.3636 -0.4198 -0.1320
  521SOL    HW1 1575   2.719   0.054   0.628  0.5899 -0.0924  1.2168
  521SOL    HW2 1576   2.592  -0.008   0.574  1.6096 -0.3207 -1.0276
  522SOL     OW 1577   2.490   1.075   0.805 -0.1241 -0.0662 -0.1460
  522SOL    HW1 1578   2.404   1.114   0.786 -0.1155  0.1297  0.2093
  522SOL    HW2 1579   2.471   1.003   0.864  0.2088  1.8336  2.4705
  523SOL     OW 1580   1.018   0.029   1.271 -0.1525 -0.2731 -0.1883
  523SOL    HW1 1581   0.967   0.097   1.227  0.4489  1.8272  2.1424
  523SOL    HW2 1582   1.108   0.044   1.241  0.0503  0.2778  0.6794
  524SOL     OW 1583   0.780   0.088   0.355  0.4235  0.3028 -0.1819
  524SOL    HW1 1584   0.752   0.177   0.376  0.7651  0.4998 -0.5395
  524SOL    HW2 1585   0.700   0.044   0.326  0.3472  0.6446 -0.5001
  525SOL     OW 1586   2.724   2.324   0.028  0.2381 -0.1989  0.1066
  525SOL    HW1 1587   2.765   2.240   0.049  1.2929  0.0970 -0.6556
  525SOL    HW2 1588   2.709   2.320  -0.067  3.2645  1.6578 -0.5700
  526SOL     OW 1589   1.653   0.046   0.303  0.5376 -0.2174 -0.3935
  526SOL    HW1 1590   1.713   0.034   0.230 -0.2837 -1.4809 -0.8914
  526SOL    HW2 1591   1.634  -0.043   0.334 -1.0468  0.1438 -0.2355
   2.82020   2.82020   1.99418   0.00000   0.00000   0.00000   0.00000   1.41010   1.41010
