integrator               = md
dt                       = 0.002
nsteps                   = @timesteps@

nstlog                   = 500
nstenergy                = 500
nstxout-compressed       = 500

continuation             = yes
constraints              = h-bonds
constraint-algorithm     = lincs

cutoff-scheme            = Verlet

coulombtype              = PME
rcoulomb                 = 1.0

vdwtype                  = Cut-off
rvdw                     = 1.0
DispCorr                 = EnerPres

tcoupl                   = V-rescale
tc-grps                  = Protein  SOL
tau-t                    = 0.1      0.1
ref-t                    = 318      318

pcoupl                  = Parrinello-Rahman     ; Pressure coupling on in NPT
pcoupltype              = isotropic             ; uniform scaling of box vectors
tau_p                   = 2.0                   ; time constant, in ps
ref_p                   = 1.0                   ; reference pressure, in bar
compressibility         = 4.5e-5                ; isothermal compressibility of water, bar^-1
refcoord_scaling        = com
; Periodic boundary conditions
pbc                     = xyz       ; 3-D PBC
; Velocity generation
gen_vel                 = no        ; Velocity generation is off 